<?xml version="1.0"?>
<VTKFile type="UnstructuredGrid"  version="0.1"  >
<UnstructuredGrid>
<Piece  NumberOfPoints="1681" NumberOfCells="3200">
<Points>
<DataArray  type="Float64"  NumberOfComponents="3"  format="ascii">0 0 0  0.5 0 0  1 0 0  1.5 0 0  2 0 0  2.5 0 0  3 0 0  3.5 0 0  4 0 0  4.5 0 0  5 0 0  5.5 0 0  6 0 0  6.5 0 0  7 0 0  7.5 0 0  8 0 0  8.5 0 0  9 0 0  9.5 0 0  10 0 0  10.5 0 0  11 0 0  11.5 0 0  12 0 0  12.5 0 0  13 0 0  13.5 0 0  14 0 0  14.5 0 0  15 0 0  15.5 0 0  16 0 0  16.5 0 0  17 0 0  17.5 0 0  18 0 0  18.5 0 0  19 0 0  19.5 0 0  20 0 0  0 0.5 0  0.5 0.5 0  1 0.5 0  1.5 0.5 0  2 0.5 0  2.5 0.5 0  3 0.5 0  3.5 0.5 0  4 0.5 0  4.5 0.5 0  5 0.5 0  5.5 0.5 0  6 0.5 0  6.5 0.5 0  7 0.5 0  7.5 0.5 0  8 0.5 0  8.5 0.5 0  9 0.5 0  9.5 0.5 0  10 0.5 0  10.5 0.5 0  11 0.5 0  11.5 0.5 0  12 0.5 0  12.5 0.5 0  13 0.5 0  13.5 0.5 0  14 0.5 0  14.5 0.5 0  15 0.5 0  15.5 0.5 0  16 0.5 0  16.5 0.5 0  17 0.5 0  17.5 0.5 0  18 0.5 0  18.5 0.5 0  19 0.5 0  19.5 0.5 0  20 0.5 0  0 1 0  0.5 1 0  1 1 0  1.5 1 0  2 1 0  2.5 1 0  3 1 0  3.5 1 0  4 1 0  4.5 1 0  5 1 0  5.5 1 0  6 1 0  6.5 1 0  7 1 0  7.5 1 0  8 1 0  8.5 1 0  9 1 0  9.5 1 0  10 1 0  10.5 1 0  11 1 0  11.5 1 0  12 1 0  12.5 1 0  13 1 0  13.5 1 0  14 1 0  14.5 1 0  15 1 0  15.5 1 0  16 1 0  16.5 1 0  17 1 0  17.5 1 0  18 1 0  18.5 1 0  19 1 0  19.5 1 0  20 1 0  0 1.5 0  0.5 1.5 0  1 1.5 0  1.5 1.5 0  2 1.5 0  2.5 1.5 0  3 1.5 0  3.5 1.5 0  4 1.5 0  4.5 1.5 0  5 1.5 0  5.5 1.5 0  6 1.5 0  6.5 1.5 0  7 1.5 0  7.5 1.5 0  8 1.5 0  8.5 1.5 0  9 1.5 0  9.5 1.5 0  10 1.5 0  10.5 1.5 0  11 1.5 0  11.5 1.5 0  12 1.5 0  12.5 1.5 0  13 1.5 0  13.5 1.5 0  14 1.5 0  14.5 1.5 0  15 1.5 0  15.5 1.5 0  16 1.5 0  16.5 1.5 0  17 1.5 0  17.5 1.5 0  18 1.5 0  18.5 1.5 0  19 1.5 0  19.5 1.5 0  20 1.5 0  0 2 0  0.5 2 0  1 2 0  1.5 2 0  2 2 0  2.5 2 0  3 2 0  3.5 2 0  4 2 0  4.5 2 0  5 2 0  5.5 2 0  6 2 0  6.5 2 0  7 2 0  7.5 2 0  8 2 0  8.5 2 0  9 2 0  9.5 2 0  10 2 0  10.5 2 0  11 2 0  11.5 2 0  12 2 0  12.5 2 0  13 2 0  13.5 2 0  14 2 0  14.5 2 0  15 2 0  15.5 2 0  16 2 0  16.5 2 0  17 2 0  17.5 2 0  18 2 0  18.5 2 0  19 2 0  19.5 2 0  20 2 0  0 2.5 0  0.5 2.5 0  1 2.5 0  1.5 2.5 0  2 2.5 0  2.5 2.5 0  3 2.5 0  3.5 2.5 0  4 2.5 0  4.5 2.5 0  5 2.5 0  5.5 2.5 0  6 2.5 0  6.5 2.5 0  7 2.5 0  7.5 2.5 0  8 2.5 0  8.5 2.5 0  9 2.5 0  9.5 2.5 0  10 2.5 0  10.5 2.5 0  11 2.5 0  11.5 2.5 0  12 2.5 0  12.5 2.5 0  13 2.5 0  13.5 2.5 0  14 2.5 0  14.5 2.5 0  15 2.5 0  15.5 2.5 0  16 2.5 0  16.5 2.5 0  17 2.5 0  17.5 2.5 0  18 2.5 0  18.5 2.5 0  19 2.5 0  19.5 2.5 0  20 2.5 0  0 3 0  0.5 3 0  1 3 0  1.5 3 0  2 3 0  2.5 3 0  3 3 0  3.5 3 0  4 3 0  4.5 3 0  5 3 0  5.5 3 0  6 3 0  6.5 3 0  7 3 0  7.5 3 0  8 3 0  8.5 3 0  9 3 0  9.5 3 0  10 3 0  10.5 3 0  11 3 0  11.5 3 0  12 3 0  12.5 3 0  13 3 0  13.5 3 0  14 3 0  14.5 3 0  15 3 0  15.5 3 0  16 3 0  16.5 3 0  17 3 0  17.5 3 0  18 3 0  18.5 3 0  19 3 0  19.5 3 0  20 3 0  0 3.5 0  0.5 3.5 0  1 3.5 0  1.5 3.5 0  2 3.5 0  2.5 3.5 0  3 3.5 0  3.5 3.5 0  4 3.5 0  4.5 3.5 0  5 3.5 0  5.5 3.5 0  6 3.5 0  6.5 3.5 0  7 3.5 0  7.5 3.5 0  8 3.5 0  8.5 3.5 0  9 3.5 0  9.5 3.5 0  10 3.5 0  10.5 3.5 0  11 3.5 0  11.5 3.5 0  12 3.5 0  12.5 3.5 0  13 3.5 0  13.5 3.5 0  14 3.5 0  14.5 3.5 0  15 3.5 0  15.5 3.5 0  16 3.5 0  16.5 3.5 0  17 3.5 0  17.5 3.5 0  18 3.5 0  18.5 3.5 0  19 3.5 0  19.5 3.5 0  20 3.5 0  0 4 0  0.5 4 0  1 4 0  1.5 4 0  2 4 0  2.5 4 0  3 4 0  3.5 4 0  4 4 0  4.5 4 0  5 4 0  5.5 4 0  6 4 0  6.5 4 0  7 4 0  7.5 4 0  8 4 0  8.5 4 0  9 4 0  9.5 4 0  10 4 0  10.5 4 0  11 4 0  11.5 4 0  12 4 0  12.5 4 0  13 4 0  13.5 4 0  14 4 0  14.5 4 0  15 4 0  15.5 4 0  16 4 0  16.5 4 0  17 4 0  17.5 4 0  18 4 0  18.5 4 0  19 4 0  19.5 4 0  20 4 0  0 4.5 0  0.5 4.5 0  1 4.5 0  1.5 4.5 0  2 4.5 0  2.5 4.5 0  3 4.5 0  3.5 4.5 0  4 4.5 0  4.5 4.5 0  5 4.5 0  5.5 4.5 0  6 4.5 0  6.5 4.5 0  7 4.5 0  7.5 4.5 0  8 4.5 0  8.5 4.5 0  9 4.5 0  9.5 4.5 0  10 4.5 0  10.5 4.5 0  11 4.5 0  11.5 4.5 0  12 4.5 0  12.5 4.5 0  13 4.5 0  13.5 4.5 0  14 4.5 0  14.5 4.5 0  15 4.5 0  15.5 4.5 0  16 4.5 0  16.5 4.5 0  17 4.5 0  17.5 4.5 0  18 4.5 0  18.5 4.5 0  19 4.5 0  19.5 4.5 0  20 4.5 0  0 5 0  0.5 5 0  1 5 0  1.5 5 0  2 5 0  2.5 5 0  3 5 0  3.5 5 0  4 5 0  4.5 5 0  5 5 0  5.5 5 0  6 5 0  6.5 5 0  7 5 0  7.5 5 0  8 5 0  8.5 5 0  9 5 0  9.5 5 0  10 5 0  10.5 5 0  11 5 0  11.5 5 0  12 5 0  12.5 5 0  13 5 0  13.5 5 0  14 5 0  14.5 5 0  15 5 0  15.5 5 0  16 5 0  16.5 5 0  17 5 0  17.5 5 0  18 5 0  18.5 5 0  19 5 0  19.5 5 0  20 5 0  0 5.5 0  0.5 5.5 0  1 5.5 0  1.5 5.5 0  2 5.5 0  2.5 5.5 0  3 5.5 0  3.5 5.5 0  4 5.5 0  4.5 5.5 0  5 5.5 0  5.5 5.5 0  6 5.5 0  6.5 5.5 0  7 5.5 0  7.5 5.5 0  8 5.5 0  8.5 5.5 0  9 5.5 0  9.5 5.5 0  10 5.5 0  10.5 5.5 0  11 5.5 0  11.5 5.5 0  12 5.5 0  12.5 5.5 0  13 5.5 0  13.5 5.5 0  14 5.5 0  14.5 5.5 0  15 5.5 0  15.5 5.5 0  16 5.5 0  16.5 5.5 0  17 5.5 0  17.5 5.5 0  18 5.5 0  18.5 5.5 0  19 5.5 0  19.5 5.5 0  20 5.5 0  0 6 0  0.5 6 0  1 6 0  1.5 6 0  2 6 0  2.5 6 0  3 6 0  3.5 6 0  4 6 0  4.5 6 0  5 6 0  5.5 6 0  6 6 0  6.5 6 0  7 6 0  7.5 6 0  8 6 0  8.5 6 0  9 6 0  9.5 6 0  10 6 0  10.5 6 0  11 6 0  11.5 6 0  12 6 0  12.5 6 0  13 6 0  13.5 6 0  14 6 0  14.5 6 0  15 6 0  15.5 6 0  16 6 0  16.5 6 0  17 6 0  17.5 6 0  18 6 0  18.5 6 0  19 6 0  19.5 6 0  20 6 0  0 6.5 0  0.5 6.5 0  1 6.5 0  1.5 6.5 0  2 6.5 0  2.5 6.5 0  3 6.5 0  3.5 6.5 0  4 6.5 0  4.5 6.5 0  5 6.5 0  5.5 6.5 0  6 6.5 0  6.5 6.5 0  7 6.5 0  7.5 6.5 0  8 6.5 0  8.5 6.5 0  9 6.5 0  9.5 6.5 0  10 6.5 0  10.5 6.5 0  11 6.5 0  11.5 6.5 0  12 6.5 0  12.5 6.5 0  13 6.5 0  13.5 6.5 0  14 6.5 0  14.5 6.5 0  15 6.5 0  15.5 6.5 0  16 6.5 0  16.5 6.5 0  17 6.5 0  17.5 6.5 0  18 6.5 0  18.5 6.5 0  19 6.5 0  19.5 6.5 0  20 6.5 0  0 7 0  0.5 7 0  1 7 0  1.5 7 0  2 7 0  2.5 7 0  3 7 0  3.5 7 0  4 7 0  4.5 7 0  5 7 0  5.5 7 0  6 7 0  6.5 7 0  7 7 0  7.5 7 0  8 7 0  8.5 7 0  9 7 0  9.5 7 0  10 7 0  10.5 7 0  11 7 0  11.5 7 0  12 7 0  12.5 7 0  13 7 0  13.5 7 0  14 7 0  14.5 7 0  15 7 0  15.5 7 0  16 7 0  16.5 7 0  17 7 0  17.5 7 0  18 7 0  18.5 7 0  19 7 0  19.5 7 0  20 7 0  0 7.5 0  0.5 7.5 0  1 7.5 0  1.5 7.5 0  2 7.5 0  2.5 7.5 0  3 7.5 0  3.5 7.5 0  4 7.5 0  4.5 7.5 0  5 7.5 0  5.5 7.5 0  6 7.5 0  6.5 7.5 0  7 7.5 0  7.5 7.5 0  8 7.5 0  8.5 7.5 0  9 7.5 0  9.5 7.5 0  10 7.5 0  10.5 7.5 0  11 7.5 0  11.5 7.5 0  12 7.5 0  12.5 7.5 0  13 7.5 0  13.5 7.5 0  14 7.5 0  14.5 7.5 0  15 7.5 0  15.5 7.5 0  16 7.5 0  16.5 7.5 0  17 7.5 0  17.5 7.5 0  18 7.5 0  18.5 7.5 0  19 7.5 0  19.5 7.5 0  20 7.5 0  0 8 0  0.5 8 0  1 8 0  1.5 8 0  2 8 0  2.5 8 0  3 8 0  3.5 8 0  4 8 0  4.5 8 0  5 8 0  5.5 8 0  6 8 0  6.5 8 0  7 8 0  7.5 8 0  8 8 0  8.5 8 0  9 8 0  9.5 8 0  10 8 0  10.5 8 0  11 8 0  11.5 8 0  12 8 0  12.5 8 0  13 8 0  13.5 8 0  14 8 0  14.5 8 0  15 8 0  15.5 8 0  16 8 0  16.5 8 0  17 8 0  17.5 8 0  18 8 0  18.5 8 0  19 8 0  19.5 8 0  20 8 0  0 8.5 0  0.5 8.5 0  1 8.5 0  1.5 8.5 0  2 8.5 0  2.5 8.5 0  3 8.5 0  3.5 8.5 0  4 8.5 0  4.5 8.5 0  5 8.5 0  5.5 8.5 0  6 8.5 0  6.5 8.5 0  7 8.5 0  7.5 8.5 0  8 8.5 0  8.5 8.5 0  9 8.5 0  9.5 8.5 0  10 8.5 0  10.5 8.5 0  11 8.5 0  11.5 8.5 0  12 8.5 0  12.5 8.5 0  13 8.5 0  13.5 8.5 0  14 8.5 0  14.5 8.5 0  15 8.5 0  15.5 8.5 0  16 8.5 0  16.5 8.5 0  17 8.5 0  17.5 8.5 0  18 8.5 0  18.5 8.5 0  19 8.5 0  19.5 8.5 0  20 8.5 0  0 9 0  0.5 9 0  1 9 0  1.5 9 0  2 9 0  2.5 9 0  3 9 0  3.5 9 0  4 9 0  4.5 9 0  5 9 0  5.5 9 0  6 9 0  6.5 9 0  7 9 0  7.5 9 0  8 9 0  8.5 9 0  9 9 0  9.5 9 0  10 9 0  10.5 9 0  11 9 0  11.5 9 0  12 9 0  12.5 9 0  13 9 0  13.5 9 0  14 9 0  14.5 9 0  15 9 0  15.5 9 0  16 9 0  16.5 9 0  17 9 0  17.5 9 0  18 9 0  18.5 9 0  19 9 0  19.5 9 0  20 9 0  0 9.5 0  0.5 9.5 0  1 9.5 0  1.5 9.5 0  2 9.5 0  2.5 9.5 0  3 9.5 0  3.5 9.5 0  4 9.5 0  4.5 9.5 0  5 9.5 0  5.5 9.5 0  6 9.5 0  6.5 9.5 0  7 9.5 0  7.5 9.5 0  8 9.5 0  8.5 9.5 0  9 9.5 0  9.5 9.5 0  10 9.5 0  10.5 9.5 0  11 9.5 0  11.5 9.5 0  12 9.5 0  12.5 9.5 0  13 9.5 0  13.5 9.5 0  14 9.5 0  14.5 9.5 0  15 9.5 0  15.5 9.5 0  16 9.5 0  16.5 9.5 0  17 9.5 0  17.5 9.5 0  18 9.5 0  18.5 9.5 0  19 9.5 0  19.5 9.5 0  20 9.5 0  0 10 0  0.5 10 0  1 10 0  1.5 10 0  2 10 0  2.5 10 0  3 10 0  3.5 10 0  4 10 0  4.5 10 0  5 10 0  5.5 10 0  6 10 0  6.5 10 0  7 10 0  7.5 10 0  8 10 0  8.5 10 0  9 10 0  9.5 10 0  10 10 0  10.5 10 0  11 10 0  11.5 10 0  12 10 0  12.5 10 0  13 10 0  13.5 10 0  14 10 0  14.5 10 0  15 10 0  15.5 10 0  16 10 0  16.5 10 0  17 10 0  17.5 10 0  18 10 0  18.5 10 0  19 10 0  19.5 10 0  20 10 0  0 10.5 0  0.5 10.5 0  1 10.5 0  1.5 10.5 0  2 10.5 0  2.5 10.5 0  3 10.5 0  3.5 10.5 0  4 10.5 0  4.5 10.5 0  5 10.5 0  5.5 10.5 0  6 10.5 0  6.5 10.5 0  7 10.5 0  7.5 10.5 0  8 10.5 0  8.5 10.5 0  9 10.5 0  9.5 10.5 0  10 10.5 0  10.5 10.5 0  11 10.5 0  11.5 10.5 0  12 10.5 0  12.5 10.5 0  13 10.5 0  13.5 10.5 0  14 10.5 0  14.5 10.5 0  15 10.5 0  15.5 10.5 0  16 10.5 0  16.5 10.5 0  17 10.5 0  17.5 10.5 0  18 10.5 0  18.5 10.5 0  19 10.5 0  19.5 10.5 0  20 10.5 0  0 11 0  0.5 11 0  1 11 0  1.5 11 0  2 11 0  2.5 11 0  3 11 0  3.5 11 0  4 11 0  4.5 11 0  5 11 0  5.5 11 0  6 11 0  6.5 11 0  7 11 0  7.5 11 0  8 11 0  8.5 11 0  9 11 0  9.5 11 0  10 11 0  10.5 11 0  11 11 0  11.5 11 0  12 11 0  12.5 11 0  13 11 0  13.5 11 0  14 11 0  14.5 11 0  15 11 0  15.5 11 0  16 11 0  16.5 11 0  17 11 0  17.5 11 0  18 11 0  18.5 11 0  19 11 0  19.5 11 0  20 11 0  0 11.5 0  0.5 11.5 0  1 11.5 0  1.5 11.5 0  2 11.5 0  2.5 11.5 0  3 11.5 0  3.5 11.5 0  4 11.5 0  4.5 11.5 0  5 11.5 0  5.5 11.5 0  6 11.5 0  6.5 11.5 0  7 11.5 0  7.5 11.5 0  8 11.5 0  8.5 11.5 0  9 11.5 0  9.5 11.5 0  10 11.5 0  10.5 11.5 0  11 11.5 0  11.5 11.5 0  12 11.5 0  12.5 11.5 0  13 11.5 0  13.5 11.5 0  14 11.5 0  14.5 11.5 0  15 11.5 0  15.5 11.5 0  16 11.5 0  16.5 11.5 0  17 11.5 0  17.5 11.5 0  18 11.5 0  18.5 11.5 0  19 11.5 0  19.5 11.5 0  20 11.5 0  0 12 0  0.5 12 0  1 12 0  1.5 12 0  2 12 0  2.5 12 0  3 12 0  3.5 12 0  4 12 0  4.5 12 0  5 12 0  5.5 12 0  6 12 0  6.5 12 0  7 12 0  7.5 12 0  8 12 0  8.5 12 0  9 12 0  9.5 12 0  10 12 0  10.5 12 0  11 12 0  11.5 12 0  12 12 0  12.5 12 0  13 12 0  13.5 12 0  14 12 0  14.5 12 0  
[...]
<PointData  Scalars="f_5173-1"> 
<DataArray  type="Float64"  Name="f_5173-1"  format="ascii">-3.4283376196743298e-01  -3.4283376197806531e-01  -3.4283376198035115e-01  -3.4283376197225607e-01  -3.4283376193858039e-01  -3.4283376186171155e-01  -3.4283376171952745e-01  -3.4283376148457195e-01  -3.4283376112404645e-01  -3.4283376059995879e-01  -3.4283375986926085e-01  -3.4283375888396844e-01  -3.4283375759128165e-01  -3.4283375593372467e-01  -3.4283375384931497e-01  -3.4283375127177163e-01  -3.4283374813076634e-01  -3.4283374435222252e-01  -3.4283373985866211e-01  -3.4283373456959831e-01  -3.4283372840196846e-01  -3.4283372127059181e-01  -3.4283371308862981e-01  -3.4283370376800154e-01  -3.4283369321965429e-01  -3.4283368135341069e-01  -3.4283366807644505e-01  -3.4283365328676041e-01  -3.4283363684697393e-01  -3.4283361847749344e-01  -3.4283359731362190e-01  -3.4283357004709147e-01  -3.4283352305838044e-01  -3.4283339884349051e-01  -3.4283295162881100e-01  -3.4283112253375531e-01  -3.4282333591482989e-01  -3.4279001485455418e-01  -3.4265098071723177e-01  -3.4212133644920023e-01  -3.4044987057928322e-01  -3.4283376197806525e-01  -3.4283376197588489e-01  -3.4283376198124860e-01  -3.4283376197908144e-01  -3.4283376195412130e-01  -3.4283376188868320e-01  -3.4283376176044755e-01  -3.4283376154185857e-01  -3.4283376120009640e-01  -3.4283376069717242e-01  -3.4283375999003596e-01  -3.4283375903068092e-01  -3.4283375776626274e-01  -3.4283375613923678e-01  -3.4283375408752703e-01  -3.4283375154473350e-01  -3.4283374844038339e-01  -3.4283374470023026e-01  -3.4283374024660296e-01  -3.4283373499880326e-01  -3.4283372887354630e-01  -3.4283372178543281e-01  -3.4283371364743009e-01  -3.4283370437131400e-01  -3.4283369386795404e-01  -3.4283368204707071e-01  -3.4283366881511262e-01  -3.4283365406591476e-01  -3.4283363764237590e-01  -3.4283361917928429e-01  -3.4283359745420755e-01  -3.4283356769452095e-01  -3.4283351038341325e-01  -3.4283334474254340e-01  -3.4283273601155118e-01  -3.4283030319014168e-01  -3.4282041700158128e-01  -3.4278071666302357e-01  -3.4262717591623931e-01  -3.4208294409013351e-01  -3.4044987057928322e-01  -3.4283376198035115e-01  -3.4283376198124860e-01  -3.4283376199531262e-01  -3.4283376200952981e-01  -3.4283376200963073e-01  -3.4283376197749965e-01  -3.4283376189043852e-01  -3.4283376172068025e-01  -3.4283376143528321e-01  -3.4283376099616542e-01  -3.4283376036017571e-01  -3.4283375947917949e-01  -3.4283375830016183e-01  -3.4283375676535521e-01  -3.4283375481240019e-01  -3.4283375237454533e-01  -3.4283374938089373e-01  -3.4283374575669950e-01  -3.4283374142371875e-01  -3.4283373630061420e-01  -3.4283373030341224e-01  -3.4283372334600232e-01  -3.4283371534066115e-01  -3.4283370619855430e-01  -3.4283369583008477e-01  -3.4283368414463605e-01  -3.4283367104799284e-01  -3.4283365643060459e-01  -3.4283364011901540e-01  -3.4283362167777015e-01  -3.4283359960274895e-01  -3.4283356803933696e-01  -3.4283350346159219e-01  -3.4283331082531820e-01  -3.4283260732657933e-01  -3.4282986319520820e-01  -3.4281904974697142e-01  -3.4277700577846487e-01  -3.4261919214516928e-01  -3.4207238548413316e-01  -3.4044987057928322e-01  -3.4283376197225607e-01  -3.4283376197908150e-01  -3.4283376200952975e-01  -3.4283376205284660e-01  -3.4283376209553224e-01  -3.4283376211931882e-01  -3.4283376210116984e-01  -3.4283376201307675e-01  -3.4283376182193781e-01  -3.4283376148953210e-01  -3.4283376097254786e-01  -3.4283376022264017e-01  -3.4283375918651371e-01  -3.4283375780603420e-01  -3.4283375601837418e-01  -3.4283375375620051e-01  -3.4283375094791080e-01  -3.4283374751792411e-01  -3.4283374338703188e-01  -3.4283373847281184e-01  -3.4283373269010625e-01  -3.4283372595156014e-01  -3.4283371816820724e-01  -3.4283370925006257e-01  -3.4283369910658507e-01  -3.4283368764650535e-01  -3.4283367477504290e-01  -3.4283366038063151e-01  -3.4283364427952795e-01  -3.4283362599134465e-01  -3.4283360383691097e-01  -3.4283357132764614e-01  -3.4283350277089292e-01  -3.4283329614954811e-01  -3.4283254787011530e-01  -3.4282967272483705e-01  -3.4281851956329923e-01  -3.4277574892006618e-01  -3.4261687214225328e-01  -3.4206979179296226e-01  -3.4044987057928322e-01  -3.4283376193858045e-01  -3.4283376195412130e-01  -3.4283376200963073e-01  -3.4283376209553224e-01  -3.4283376219879957e-01  -3.4283376230131346e-01  -3.4283376237991203e-01  -3.4283376240641494e-01  -3.4283376234755875e-01  -3.4283376216495398e-01  -3.4283376181508024e-01  -3.4283376124931331e-01  -3.4283376041398111e-01  -3.4283375925045123e-01  -3.4283375769525520e-01  -3.4283375568025631e-01  -3.4283375313286985e-01  -3.4283374997634219e-01  -3.4283374613009826e-01  -3.4283374151016188e-01  -3.4283373602965672e-01  -3.4283372959938796e-01  -3.4283372212850061e-01  -3.4283371352518072e-01  -3.4283370369726712e-01  -3.4283369255224011e-01  -3.4283367999445885e-01  -3.4283366591115005e-01  -3.4283365011329842e-01  -3.4283363209697332e-01  -3.4283361009257285e-01  -3.4283357729967956e-01  -3.4283350703602100e-01  -3.4283329438848809e-01  -3.4283252808290282e-01  -3.4282960523409189e-01  -3.4281834293169711e-01  -3.4277537253392709e-01  -3.4261626317692773e-01  -3.4206920649122935e-01  -3.4044987057928322e-01  -3.4283376186171155e-01  -3.4283376188868320e-01  -3.4283376197749965e-01  -3.4283376211931882e-01  -3.4283376230131346e-01  -3.4283376250553182e-01  -3.4283376270883092e-01  -3.4283376288295891e-01  -3.4283376299453405e-01  -3.4283376300500246e-01  -3.4283376287061218e-01  -3.4283376254241160e-01  -3.4283376196627530e-01  -3.4283376108296088e-01  -3.4283375982820391e-01  -3.4283375813285805e-01  -3.4283375592309007e-01  -3.4283375312064029e-01  -3.4283374964315794e-01  -3.4283374540462269e-01  -3.4283374031586245e-01  -3.4283373428517544e-01  -3.4283372721905975e-01  -3.4283371902302545e-01  -3.4283370960236287e-01  -3.4283369886232340e-01  -3.4283368670550368e-01  -3.4283367301761170e-01  -3.4283365760665901e-01  -3.4283363995764382e-01  -3.4283361826011000e-01  -3.4283358557925575e-01  -3.4283351483469132e-01  -3.4283330004850610e-01  -3.4283252742539766e-01  -3.4282958908070199e-01  -3.4281829501167405e-01  -3.4277527438684113e-01  -3.4261611931955638e-01  -3.4206908597006974e-01  -3.4044987057928322e-01  -3.4283376171952745e-01  -3.4283376176044755e-01  -3.4283376189043852e-01  -3.4283376210116984e-01  -3.4283376237991203e-01  -3.4283376270883092e-01  -3.4283376306485880e-01  -3.4283376341974581e-01  -3.4283376374004737e-01  -3.4283376398707621e-01  -3.4283376411685584e-01  -3.4283376408008942e-01  -3.4283376382215081e-01  -3.4283376328310461e-01  -3.4283376239776253e-01  -3.4283376109578662e-01  -3.4283375930184889e-01  -3.4283375693586149e-01  -3.4283375391328935e-01  -3.4283375014556117e-01  -3.4283374554059270e-01  -3.4283374000343814e-01  -3.4283373343707774e-01  -3.4283372574332682e-01  -3.4283371682374431e-01  -3.4283370657999379e-01  -3.4283369491140464e-01  -3.4283368170075051e-01  -3.4283366675277394e-01  -3.4283364954604739e-01  -3.4283362825168084e-01  -3.4283359588036394e-01  -3.4283352520318633e-01  -3.4283330987999655e-01  -3.4283253534920916e-01  -3.4282959242148658e-01  -3.4281828970128564e-01  -3.4277525700502637e-01  -3.4261609317171970e-01  -3.4206906673713022e-01  -3.4044987057928322e-01  -3.4283376148457201e-01  -3.4283376154185857e-01  -3.4283376172068025e-01  -3.4283376201307675e-01  -3.4283376240641494e-01  -3.4283376288295891e-01  -3.4283376341974581e-01  -3.4283376398858773e-01  -3.4283376455603976e-01  -3.4283376508333463e-01  -3.4283376552630923e-01  -3.4283376583533837e-01  -3.4283376595528503e-01  -3.4283376582547520e-01  -3.4283376537970650e-01  -3.4283376454630254e-01  -3.4283376324822462e-01  -3.4283376140325778e-01  -3.4283375892428553e-01  -3.4283375571967384e-01  -3.4283375169378283e-01  -3.4283374674762734e-01  -3.4283374077970152e-01  -3.4283373368695763e-01  -3.4283372536582202e-01  -3.4283371571269722e-01  -3.4283370462167179e-01  -3.4283369197036889e-01  -3.4283367755821909e-01  -3.4283366085713324e-01  -3.4283364002665606e-01  -3.4283360805213359e-01  -3.4283353764638069e-01  -3.4283332234374475e-01  -3.4283254734708551e-01  -3.4282960311949495e-01  -3.4281829798080765e-01  -3.4277526204763470e-01  -3.4261609563628720e-01  -3.4206906880463439e-01  -3.4044987057928322e-01  -3.4283376112404651e-01  -3.4283376120009640e-01  -3.4283376143528321e-01  -3.4283376182193775e-01  -3.4283376234755869e-01  -3.4283376299453400e-01  -3.4283376374004737e-01  -3.4283376455603976e-01  -3.4283376540914551e-01  -3.4283376626059731e-01  -3.4283376706611801e-01  -3.4283376777581165e-01  -3.4283376833406520e-01  -3.4283376867946835e-01  -3.4283376874476285e-01  -3.4283376845683494e-01  -3.4283376773676411e-01  -3.4283376649994735e-01  -3.4283376465631732e-01  -3.4283376211067801e-01  -3.4283375876318201e-01  -3.4283375450997416e-01  -3.4283374924402382e-01  -3.4283374285613927e-01  -3.4283373523605065e-01  -3.4283372627300390e-01  -3.4283371585357014e-01  -3.4283370384754652e-01  -3.4283369004610909e-01  -3.4283367391191899e-01  -3.4283365359271145e-01  -3.4283362205593010e-01  -3.4283355198357923e-01  -3.4283333685557921e-01  -3.4283256178572186e-01  -3.4282961711638321e-01  -3.4281831105876487e-01  -3.4277527371764438e-01  -3.4261610544460486e-01  -3.4206907567089440e-01  -3.4044987057928322e-01  -3.4283376059995879e-01  -3.4283376069717242e-01  -3.4283376099616542e-01  -3.4283376148953210e-01  -3.4283376216495393e-01  -3.4283376300500246e-01  -3.4283376398707621e-01  -3.4283376508333463e-01  -3.4283376626059731e-01  -3.4283376748021116e-01  -3.4283376869789900e-01  -3.4283376986360081e-01  -3.4283377092131651e-01  -3.4283377180896046e-01  -3.4283377245823904e-01  -3.4283377279456523e-01  -3.4283377273702703e-01  -3.4283377219842964e-01  -3.4283377108543411e-01  -3.4283376929881915e-01  -3.4283376673389504e-01  -3.4283376328109966e-01  -3.4283375882680339e-01  -3.4283375325432125e-01  -3.4283374644501929e-01  -3.4283373827895536e-01  -3.4283372863274159e-01  -3.4283371736547041e-01  -3.4283370425679227e-01  -3.4283368875670778e-01  -3.4283366899837103e-01  -3.4283363793111427e-01  -3.4283356821248145e-01  -3.4283335328750081e-01  -3.4283257822034957e-01  -3.4282963328710209e-01  -3.4281832661544143e-01  -3.4277528818090186e-01  -3.4261611797486247e-01  -3.4206908425630450e-01  -3.4044987057928322e-01  -3.4283375986926085e-01  -3.4283375999003596e-01  -3.4283376036017571e-01  -3.4283376097254792e-01  -3.4283376181508024e-01  -3.4283376287061218e-01  -3.4283376411685584e-01  -3.4283376552630923e-01  -3.4283376706611796e-01  -3.4283376869789900e-01  -3.4283377037753937e-01  -3.4283377205497861e-01  -3.4283377367398404e-01  -3.4283377517192754e-01  -3.4283377647957741e-01  -3.4283377752091815e-01  -3.4283377821301847e-01  -3.4283377846596802e-01  -3.4283377818290967e-01  -3.4283377726019743e-01  -3.4283377558771344e-01  -3.4283377304937990e-01  -3.4283376952389732e-01  -3.4283376488571327e-01  -3.4283375900611140e-01  -3.4283375175385838e-01  -3.4283374299308944e-01  -3.4283373256925015e-01  -3.4283372024714170e-01  -3.4283370546056352e-01  -3.4283368632474126e-01  -3.4283365576861929e-01  -3.4283358642567791e-01  -3.4283337171146033e-01  -3.4283259665289895e-01  -3.4282965147673000e-01  -3.4281834423365559e-01  -3.4277530472765810e-01  -3.4261613243458588e-01  -3.4206909413834619e-01  -3.4044987057928322e-01  -3.4283375888396844e-01  -3.4283375903068092e-01  -3.4283375947917949e-01  -3.4283376022264017e-01  -3.4283376124931331e-01  -3.4283376254241160e-01  -3.4283376408008942e-01  -3.4283376583533837e-01  -3.4283376777581165e-01  -3.4283376986360081e-01  -3.4283377205497861e-01  -3.4283377430011541e-01  -3.4283377654277664e-01  -3.4283377872001058e-01  -3.4283378076183851e-01  -3.4283378259096220e-01  -3.4283378412250815e-01  -3.4283378526383324e-01  -3.4283378591442004e-01  -3.4283378596589587e-01  -3.4283378530221392e-01  -3.4283378380003943e-01  -3.4283378132937692e-01  -3.4283377775445095e-01  -3.4283377293473577e-01  -3.4283376672557520e-01  -3.4283375897607227e-01  -3.4283374951505874e-01  -3.4283373808917317e-01  -3.4283372411251112e-01  -3.4283370567899507e-01  -3.4283367569449830e-01  -3.4283360676733710e-01  -3.4283339228520171e-01  -3.4283261724298131e-01  -3.4282967182556612e-01  -3.4281836400875515e-01  -3.4277532339825428e-01  -3.4261614884201785e-01  -3.4206910536864299e-01  -3.4044987057928322e-01  -3.4283375759128171e-01  -3.4283375776626274e-01  -3.4283375830016183e-01  -3.4283375918651371e-01  -3.4283376041398111e-01  -3.4283376196627524e-01  -3.4283376382215081e-01  -3.4283376595528503e-01  -3.4283376833406520e-01  -3.4283377092131651e-01  -3.4283377367398404e-01  -3.4283377654277658e-01  -3.4283377947177768e-01  -3.4283378239803136e-01  -3.4283378525111585e-01  -3.4283378795271813e-01  -3.4283379041623119e-01  -3.4283379254639917e-01  -3.4283379423904098e-01  -3.4283379538089082e-01  -3.4283379584960005e-01  -3.4283379551394721e-01  -3.4283379423430410e-01  -3.4283379186337776e-01  -3.4283378824713462e-01  -3.4283378322535879e-01  -3.4283377662953274e-01  -3.4283376826885609e-01  -3.4283375786843434e-01  -3.4283374481909795e-01  -3.4283372718999566e-01  -3.4283369786098800e-01  -3.4283362941341894e-01  -3.4283341520712241e-01  -3.4283264020706272e-01  -3.4282969455924461e-01  -3.4281838616210358e-01  -3.4277534439484458e-01  -3.4261616736781669e-01  -3.4206911806891777e-01  -3.4044987057928322e-01  -3.4283375593372467e-01  -3.4283375613923683e-01  -3.4283375676535527e-01  -3.4283375780603420e-01  -3.4283375925045123e-01  -3.4283376108296082e-01  -3.4283376328310455e-01  -3.4283376582547520e-01  -3.4283376867946835e-01  -3.4283377180896046e-01  -3.4283377517192759e-01  -3.4283377872001058e-01  -3.4283378239803136e-01  -3.4283378614346605e-01  -3.4283378988588525e-01  -3.4283379354637639e-01  -3.4283379703696809e-01  -3.4283380026008264e-01  -3.4283380310805034e-01  -3.4283380546272713e-01  -3.4283380719526446e-01  -3.4283380816608761e-01  -3.4283380822513959e-01  -3.4283380721242307e-01  -3.4283380495876298e-01  -3.4283380128625951e-01  -3.4283379600613906e-01  -3.4283378890483995e-01  -3.4283377968238415e-01  -3.4283376770251600e-01  -3.4283375100576668e-01  -3.4283372244247456e-01  -3.4283365456427983e-01  -3.4283344070161798e-01  -3.4283266578918886e-01  -3.4282971993353378e-01  -3.4281841094893739e-01  -3.4277536795559316e-01  -3.4261618821246231e-01  -3.4206913237206049e-01  -3.4044987057928322e-01  -3.4283375384931497e-01  -3.4283375408752703e-01  -3.4283375481240019e-01  -3.4283375601837418e-01  -3.4283375769525515e-01  -3.4283375982820385e-01  -3.4283376239776248e-01  -3.4283376537970650e-01  -3.4283376874476285e-01  -3.4283377245823904e-01  -3.4283377647957741e-01  -3.4283378076183851e-01  -3.4283378525111585e-01  -3.4283378988588525e-01  -3.4283379459629781e-01  -3.4283379930342917e-01  -3.4283380391850427e-01  -3.4283380834212401e-01  -3.4283381246352840e-01  -3.4283381615994085e-01  -3.4283381929604778e-01  -3.4283382172367799e-01  -3.4283382328175099e-01  -3.4283382379654276e-01  -3.4283382308221300e-01  -3.4283382094108972e-01  -3.4283381716144912e-01  -3.4283381150366421e-01  -3.4283380363881000e-01  -3.4283379289924437e-01  -3.4283377729235354e-01  -3.4283374963449609e-01  -3.4283368244357032e-01  -3.4283346901727885e-01  -3.4283269425731056e-01  -3.4282974822709500e-01  -3.4281843864636424e-01  -3.4277539433975990e-01  -3.4261621159548278e-01  -3.4206914842267400e-01  -3.4044987057928322e-01  -3.4283375127177163e-01  -3.4283375154473350e-01  -3.4283375237454539e-01  -3.4283375375620051e-01  -3.4283375568025631e-01  -3.4283375813285799e-01  -3.4283376109578656e-01  -3.4283376454630254e-01  -3.4283376845683500e-01  -3.4283377279456523e-01  -3.4283377752091815e-01  -3.4283378259096214e-01  -3.4283378795271813e-01  -3.4283379354637639e-01  -3.4283379930342917e-01  -3.4283380514572692e-01  -3.4283381098447724e-01  -3.4283381671921082e-01  -3.4283382223674863e-01  -3.4283382741021762e-01  -3.4283383209817297e-01  -3.4283383614390017e-01  -3.4283383937497797e-01  -3.4283384160317187e-01  -3.4283384262462641e-01  -3.4283384221988766e-01  -3.4283384015153673e-01  -3.4283383615035878e-01  -3.4283382985419147e-01  -3.4283382055902911e-01  -3.4283380623361692e-01  -3.4283377965457340e-01  -3.4283371330034124e-01  -3.4283350043048144e-01  -3.4283272590845637e-01  -3.4282977974812978e-01  -3.4281846956118128e-01  -3.4277542383635662e-01  -3.4261623776459477e-01  -3.4206916638512486e-01  -3.4044987057928322e-01  -3.4283374813076634e-01  -3.4283374844038339e-01  -3.4283374938089373e-01  -3.4283375094791080e-01  -3.4283375313286985e-01  -3.4283375592309007e-01  -3.4283375930184889e-01  -3.4283376324822462e-01  -3.4283376773676411e-01  -3.4283377273702709e-01  -3.4283377821301847e-01  -3.4283378412250809e-01  -3.4283379041623119e-01  -3.4283379703696809e-01  -3.4283380391850427e-01  -3.4283381098447724e-01  -3.4283381814712410e-01  -3.4283382530595152e-01  -3.4283383234636117e-01  -3.4283383913827647e-01  -3.4283384553483254e-01  -3.4283385137120909e-01  -3.4283385646370113e-01  -3.4283386060911697e-01  -3.4283386358450285e-01  -3.4283386514676861e-01  -3.4283386503004898e-01  -3.4283386293179496e-01  -3.4283385845181547e-01  -3.4283385084392831e-01  -3.4283383803152218e-01  -3.4283381274408320e-01  -3.4283374741284239e-01  -3.4283353525140309e-01  -3.4283276107711391e-01  -3.4282981484499669e-01  -3.4281850404216108e-01  -3.4277545677698307e-01  -3.4261626700738457e-01  -3.4206918645164092e-01  -3.4044987057928322e-01  -3.4283374435222252e-01  -3.4283374470023026e-01  -3.4283374575669956e-01  -3.4283374751792411e-01  -3.4283374997634219e-01  -3.4283375312064029e-01  -3.4283375693586149e-01  -3.4283376140325778e-01  -3.4283376649994740e-01  -3.4283377219842970e-01  -3.4283377846596802e-01  -3.4283378526383318e-01  -3.4283379254639917e-01  -3.4283380026008259e-01  -3.4283380834212401e-01  -3.4283381671921082e-01  -3.4283382530595152e-01  -3.4283383400321699e-01  -3.4283384269637729e-01  -3.4283385125347687e-01  -3.4283385952340989e-01  -3.4283386733418042e-01  -3.4283387449135139e-01  -3.4283388077679589e-01  -3.4283388594778008e-01  -3.4283388973600282e-01  -3.4283389184449453e-01  -3.4283389193345448e-01  -3.4283388955935379e-01  -3.4283388392707570e-01  -3.4283387290649964e-01  -3.4283384917062654e-01  -3.4283378509326035e-01  -3.4283357383137025e-01  -3.4283280014520440e-01  -3.4282985391848764e-01  -3.4281854249384686e-01  -3.4277549354983089e-01  -3.4261629966367374e-01  -3.4206920885053121e-01  -3.4044987057928322e-01  -3.4283373985866211e-01  -3.4283374024660296e-01  -3.4283374142371875e-01  -3.4283374338703188e-01  -3.4283374613009820e-01  -3.4283374964315788e-01  -3.4283375391328935e-01  -3.4283375892428558e-01  -3.4283376465631732e-01  -3.4283377108543411e-01  -3.4283377818290961e-01  -3.4283378591442004e-01  -3.4283379423904092e-01  -3.4283380310805034e-01  -3.4283381246352840e-01  -3.4283382223674863e-01  -3.4283383234636117e-01  -3.4283384269637729e-01  -3.4283385317397386e-01  -3.4283386364715479e-01  -3.4283387396232473e-01  -3.4283388394186065e-01  -3.4283389338179177e-01  -3.4283390204971786e-01  -3.4283390968303007e-01  -3.4283391598711099e-01  -3.4283392063149520e-01  -3.4283392323517647e-01  -3.4283392330552470e-01  -3.4283391999074325e-01  -3.4283391109743050e-01  -3.4283388923044650e-01  -3.4283382669298679e-01  -3.4283361657120692e-01  -3.4283284355344751e-01  -3.4282989743575093e-01  -3.4281858539211474e-01  -3.4277553461547156e-01  -3.4261633613955034e-01  -3.4206923385554922e-01  -3.4044987057928322e-01  -3.4283373456959837e-01  -3.4283373499880326e-01  -3.4283373630061420e-01  -3.4283373847281184e-01  -3.4283374151016188e-01  -3.4283374540462269e-01  -3.4283375014556111e-01  -3.4283375571967384e-01  -3.4283376211067806e-01  -3.4283376929881920e-01  -3.4283377726019743e-01  -3.4283378596589581e-01  -3.4283379538089082e-01  -3.4283380546272713e-01  -3.4283381615994091e-01  -3.4283382741021762e-01  -3.4283383913827653e-01  -3.4283