<?xml version="1.0"?>
<VTKFile type="UnstructuredGrid"  version="0.1"  >
<UnstructuredGrid>
<Piece  NumberOfPoints="1681" NumberOfCells="3200">
<Points>
<DataArray  type="Float64"  NumberOfComponents="3"  format="ascii">0 0 0  0.5 0 0  1 0 0  1.5 0 0  2 0 0  2.5 0 0  3 0 0  3.5 0 0  4 0 0  4.5 0 0  5 0 0  5.5 0 0  6 0 0  6.5 0 0  7 0 0  7.5 0 0  8 0 0  8.5 0 0  9 0 0  9.5 0 0  10 0 0  10.5 0 0  11 0 0  11.5 0 0  12 0 0  12.5 0 0  13 0 0  13.5 0 0  14 0 0  14.5 0 0  15 0 0  15.5 0 0  16 0 0  16.5 0 0  17 0 0  17.5 0 0  18 0 0  18.5 0 0  19 0 0  19.5 0 0  20 0 0  0 0.5 0  0.5 0.5 0  1 0.5 0  1.5 0.5 0  2 0.5 0  2.5 0.5 0  3 0.5 0  3.5 0.5 0  4 0.5 0  4.5 0.5 0  5 0.5 0  5.5 0.5 0  6 0.5 0  6.5 0.5 0  7 0.5 0  7.5 0.5 0  8 0.5 0  8.5 0.5 0  9 0.5 0  9.5 0.5 0  10 0.5 0  10.5 0.5 0  11 0.5 0  11.5 0.5 0  12 0.5 0  12.5 0.5 0  13 0.5 0  13.5 0.5 0  14 0.5 0  14.5 0.5 0  15 0.5 0  15.5 0.5 0  16 0.5 0  16.5 0.5 0  17 0.5 0  17.5 0.5 0  18 0.5 0  18.5 0.5 0  19 0.5 0  19.5 0.5 0  20 0.5 0  0 1 0  0.5 1 0  1 1 0  1.5 1 0  2 1 0  2.5 1 0  3 1 0  3.5 1 0  4 1 0  4.5 1 0  5 1 0  5.5 1 0  6 1 0  6.5 1 0  7 1 0  7.5 1 0  8 1 0  8.5 1 0  9 1 0  9.5 1 0  10 1 0  10.5 1 0  11 1 0  11.5 1 0  12 1 0  12.5 1 0  13 1 0  13.5 1 0  14 1 0  14.5 1 0  15 1 0  15.5 1 0  16 1 0  16.5 1 0  17 1 0  17.5 1 0  18 1 0  18.5 1 0  19 1 0  19.5 1 0  20 1 0  0 1.5 0  0.5 1.5 0  1 1.5 0  1.5 1.5 0  2 1.5 0  2.5 1.5 0  3 1.5 0  3.5 1.5 0  4 1.5 0  4.5 1.5 0  5 1.5 0  5.5 1.5 0  6 1.5 0  6.5 1.5 0  7 1.5 0  7.5 1.5 0  8 1.5 0  8.5 1.5 0  9 1.5 0  9.5 1.5 0  10 1.5 0  10.5 1.5 0  11 1.5 0  11.5 1.5 0  12 1.5 0  12.5 1.5 0  13 1.5 0  13.5 1.5 0  14 1.5 0  14.5 1.5 0  15 1.5 0  15.5 1.5 0  16 1.5 0  16.5 1.5 0  17 1.5 0  17.5 1.5 0  18 1.5 0  18.5 1.5 0  19 1.5 0  19.5 1.5 0  20 1.5 0  0 2 0  0.5 2 0  1 2 0  1.5 2 0  2 2 0  2.5 2 0  3 2 0  3.5 2 0  4 2 0  4.5 2 0  5 2 0  5.5 2 0  6 2 0  6.5 2 0  7 2 0  7.5 2 0  8 2 0  8.5 2 0  9 2 0  9.5 2 0  10 2 0  10.5 2 0  11 2 0  11.5 2 0  12 2 0  12.5 2 0  13 2 0  13.5 2 0  14 2 0  14.5 2 0  15 2 0  15.5 2 0  16 2 0  16.5 2 0  17 2 0  17.5 2 0  18 2 0  18.5 2 0  19 2 0  19.5 2 0  20 2 0  0 2.5 0  0.5 2.5 0  1 2.5 0  1.5 2.5 0  2 2.5 0  2.5 2.5 0  3 2.5 0  3.5 2.5 0  4 2.5 0  4.5 2.5 0  5 2.5 0  5.5 2.5 0  6 2.5 0  6.5 2.5 0  7 2.5 0  7.5 2.5 0  8 2.5 0  8.5 2.5 0  9 2.5 0  9.5 2.5 0  10 2.5 0  10.5 2.5 0  11 2.5 0  11.5 2.5 0  12 2.5 0  12.5 2.5 0  13 2.5 0  13.5 2.5 0  14 2.5 0  14.5 2.5 0  15 2.5 0  15.5 2.5 0  16 2.5 0  16.5 2.5 0  17 2.5 0  17.5 2.5 0  18 2.5 0  18.5 2.5 0  19 2.5 0  19.5 2.5 0  20 2.5 0  0 3 0  0.5 3 0  1 3 0  1.5 3 0  2 3 0  2.5 3 0  3 3 0  3.5 3 0  4 3 0  4.5 3 0  5 3 0  5.5 3 0  6 3 0  6.5 3 0  7 3 0  7.5 3 0  8 3 0  8.5 3 0  9 3 0  9.5 3 0  10 3 0  10.5 3 0  11 3 0  11.5 3 0  12 3 0  12.5 3 0  13 3 0  13.5 3 0  14 3 0  14.5 3 0  15 3 0  15.5 3 0  16 3 0  16.5 3 0  17 3 0  17.5 3 0  18 3 0  18.5 3 0  19 3 0  19.5 3 0  20 3 0  0 3.5 0  0.5 3.5 0  1 3.5 0  1.5 3.5 0  2 3.5 0  2.5 3.5 0  3 3.5 0  3.5 3.5 0  4 3.5 0  4.5 3.5 0  5 3.5 0  5.5 3.5 0  6 3.5 0  6.5 3.5 0  7 3.5 0  7.5 3.5 0  8 3.5 0  8.5 3.5 0  9 3.5 0  9.5 3.5 0  10 3.5 0  10.5 3.5 0  11 3.5 0  11.5 3.5 0  12 3.5 0  12.5 3.5 0  13 3.5 0  13.5 3.5 0  14 3.5 0  14.5 3.5 0  15 3.5 0  15.5 3.5 0  16 3.5 0  16.5 3.5 0  17 3.5 0  17.5 3.5 0  18 3.5 0  18.5 3.5 0  19 3.5 0  19.5 3.5 0  20 3.5 0  0 4 0  0.5 4 0  1 4 0  1.5 4 0  2 4 0  2.5 4 0  3 4 0  3.5 4 0  4 4 0  4.5 4 0  5 4 0  5.5 4 0  6 4 0  6.5 4 0  7 4 0  7.5 4 0  8 4 0  8.5 4 0  9 4 0  9.5 4 0  10 4 0  10.5 4 0  11 4 0  11.5 4 0  12 4 0  12.5 4 0  13 4 0  13.5 4 0  14 4 0  14.5 4 0  15 4 0  15.5 4 0  16 4 0  16.5 4 0  17 4 0  17.5 4 0  18 4 0  18.5 4 0  19 4 0  19.5 4 0  20 4 0  0 4.5 0  0.5 4.5 0  1 4.5 0  1.5 4.5 0  2 4.5 0  2.5 4.5 0  3 4.5 0  3.5 4.5 0  4 4.5 0  4.5 4.5 0  5 4.5 0  5.5 4.5 0  6 4.5 0  6.5 4.5 0  7 4.5 0  7.5 4.5 0  8 4.5 0  8.5 4.5 0  9 4.5 0  9.5 4.5 0  10 4.5 0  10.5 4.5 0  11 4.5 0  11.5 4.5 0  12 4.5 0  12.5 4.5 0  13 4.5 0  13.5 4.5 0  14 4.5 0  14.5 4.5 0  15 4.5 0  15.5 4.5 0  16 4.5 0  16.5 4.5 0  17 4.5 0  17.5 4.5 0  18 4.5 0  18.5 4.5 0  19 4.5 0  19.5 4.5 0  20 4.5 0  0 5 0  0.5 5 0  1 5 0  1.5 5 0  2 5 0  2.5 5 0  3 5 0  3.5 5 0  4 5 0  4.5 5 0  5 5 0  5.5 5 0  6 5 0  6.5 5 0  7 5 0  7.5 5 0  8 5 0  8.5 5 0  9 5 0  9.5 5 0  10 5 0  10.5 5 0  11 5 0  11.5 5 0  12 5 0  12.5 5 0  13 5 0  13.5 5 0  14 5 0  14.5 5 0  15 5 0  15.5 5 0  16 5 0  16.5 5 0  17 5 0  17.5 5 0  18 5 0  18.5 5 0  19 5 0  19.5 5 0  20 5 0  0 5.5 0  0.5 5.5 0  1 5.5 0  1.5 5.5 0  2 5.5 0  2.5 5.5 0  3 5.5 0  3.5 5.5 0  4 5.5 0  4.5 5.5 0  5 5.5 0  5.5 5.5 0  6 5.5 0  6.5 5.5 0  7 5.5 0  7.5 5.5 0  8 5.5 0  8.5 5.5 0  9 5.5 0  9.5 5.5 0  10 5.5 0  10.5 5.5 0  11 5.5 0  11.5 5.5 0  12 5.5 0  12.5 5.5 0  13 5.5 0  13.5 5.5 0  14 5.5 0  14.5 5.5 0  15 5.5 0  15.5 5.5 0  16 5.5 0  16.5 5.5 0  17 5.5 0  17.5 5.5 0  18 5.5 0  18.5 5.5 0  19 5.5 0  19.5 5.5 0  20 5.5 0  0 6 0  0.5 6 0  1 6 0  1.5 6 0  2 6 0  2.5 6 0  3 6 0  3.5 6 0  4 6 0  4.5 6 0  5 6 0  5.5 6 0  6 6 0  6.5 6 0  7 6 0  7.5 6 0  8 6 0  8.5 6 0  9 6 0  9.5 6 0  10 6 0  10.5 6 0  11 6 0  11.5 6 0  12 6 0  12.5 6 0  13 6 0  13.5 6 0  14 6 0  14.5 6 0  15 6 0  15.5 6 0  16 6 0  16.5 6 0  17 6 0  17.5 6 0  18 6 0  18.5 6 0  19 6 0  19.5 6 0  20 6 0  0 6.5 0  0.5 6.5 0  1 6.5 0  1.5 6.5 0  2 6.5 0  2.5 6.5 0  3 6.5 0  3.5 6.5 0  4 6.5 0  4.5 6.5 0  5 6.5 0  5.5 6.5 0  6 6.5 0  6.5 6.5 0  7 6.5 0  7.5 6.5 0  8 6.5 0  8.5 6.5 0  9 6.5 0  9.5 6.5 0  10 6.5 0  10.5 6.5 0  11 6.5 0  11.5 6.5 0  12 6.5 0  12.5 6.5 0  13 6.5 0  13.5 6.5 0  14 6.5 0  14.5 6.5 0  15 6.5 0  15.5 6.5 0  16 6.5 0  16.5 6.5 0  17 6.5 0  17.5 6.5 0  18 6.5 0  18.5 6.5 0  19 6.5 0  19.5 6.5 0  20 6.5 0  0 7 0  0.5 7 0  1 7 0  1.5 7 0  2 7 0  2.5 7 0  3 7 0  3.5 7 0  4 7 0  4.5 7 0  5 7 0  5.5 7 0  6 7 0  6.5 7 0  7 7 0  7.5 7 0  8 7 0  8.5 7 0  9 7 0  9.5 7 0  10 7 0  10.5 7 0  11 7 0  11.5 7 0  12 7 0  12.5 7 0  13 7 0  13.5 7 0  14 7 0  14.5 7 0  15 7 0  15.5 7 0  16 7 0  16.5 7 0  17 7 0  17.5 7 0  18 7 0  18.5 7 0  19 7 0  19.5 7 0  20 7 0  0 7.5 0  0.5 7.5 0  1 7.5 0  1.5 7.5 0  2 7.5 0  2.5 7.5 0  3 7.5 0  3.5 7.5 0  4 7.5 0  4.5 7.5 0  5 7.5 0  5.5 7.5 0  6 7.5 0  6.5 7.5 0  7 7.5 0  7.5 7.5 0  8 7.5 0  8.5 7.5 0  9 7.5 0  9.5 7.5 0  10 7.5 0  10.5 7.5 0  11 7.5 0  11.5 7.5 0  12 7.5 0  12.5 7.5 0  13 7.5 0  13.5 7.5 0  14 7.5 0  14.5 7.5 0  15 7.5 0  15.5 7.5 0  16 7.5 0  16.5 7.5 0  17 7.5 0  17.5 7.5 0  18 7.5 0  18.5 7.5 0  19 7.5 0  19.5 7.5 0  20 7.5 0  0 8 0  0.5 8 0  1 8 0  1.5 8 0  2 8 0  2.5 8 0  3 8 0  3.5 8 0  4 8 0  4.5 8 0  5 8 0  5.5 8 0  6 8 0  6.5 8 0  7 8 0  7.5 8 0  8 8 0  8.5 8 0  9 8 0  9.5 8 0  10 8 0  10.5 8 0  11 8 0  11.5 8 0  12 8 0  12.5 8 0  13 8 0  13.5 8 0  14 8 0  14.5 8 0  15 8 0  15.5 8 0  16 8 0  16.5 8 0  17 8 0  17.5 8 0  18 8 0  18.5 8 0  19 8 0  19.5 8 0  20 8 0  0 8.5 0  0.5 8.5 0  1 8.5 0  1.5 8.5 0  2 8.5 0  2.5 8.5 0  3 8.5 0  3.5 8.5 0  4 8.5 0  4.5 8.5 0  5 8.5 0  5.5 8.5 0  6 8.5 0  6.5 8.5 0  7 8.5 0  7.5 8.5 0  8 8.5 0  8.5 8.5 0  9 8.5 0  9.5 8.5 0  10 8.5 0  10.5 8.5 0  11 8.5 0  11.5 8.5 0  12 8.5 0  12.5 8.5 0  13 8.5 0  13.5 8.5 0  14 8.5 0  14.5 8.5 0  15 8.5 0  15.5 8.5 0  16 8.5 0  16.5 8.5 0  17 8.5 0  17.5 8.5 0  18 8.5 0  18.5 8.5 0  19 8.5 0  19.5 8.5 0  20 8.5 0  0 9 0  0.5 9 0  1 9 0  1.5 9 0  2 9 0  2.5 9 0  3 9 0  3.5 9 0  4 9 0  4.5 9 0  5 9 0  5.5 9 0  6 9 0  6.5 9 0  7 9 0  7.5 9 0  8 9 0  8.5 9 0  9 9 0  9.5 9 0  10 9 0  10.5 9 0  11 9 0  11.5 9 0  12 9 0  12.5 9 0  13 9 0  13.5 9 0  14 9 0  14.5 9 0  15 9 0  15.5 9 0  16 9 0  16.5 9 0  17 9 0  17.5 9 0  18 9 0  18.5 9 0  19 9 0  19.5 9 0  20 9 0  0 9.5 0  0.5 9.5 0  1 9.5 0  1.5 9.5 0  2 9.5 0  2.5 9.5 0  3 9.5 0  3.5 9.5 0  4 9.5 0  4.5 9.5 0  5 9.5 0  5.5 9.5 0  6 9.5 0  6.5 9.5 0  7 9.5 0  7.5 9.5 0  8 9.5 0  8.5 9.5 0  9 9.5 0  9.5 9.5 0  10 9.5 0  10.5 9.5 0  11 9.5 0  11.5 9.5 0  12 9.5 0  12.5 9.5 0  13 9.5 0  13.5 9.5 0  14 9.5 0  14.5 9.5 0  15 9.5 0  15.5 9.5 0  16 9.5 0  16.5 9.5 0  17 9.5 0  17.5 9.5 0  18 9.5 0  18.5 9.5 0  19 9.5 0  19.5 9.5 0  20 9.5 0  0 10 0  0.5 10 0  1 10 0  1.5 10 0  2 10 0  2.5 10 0  3 10 0  3.5 10 0  4 10 0  4.5 10 0  5 10 0  5.5 10 0  6 10 0  6.5 10 0  7 10 0  7.5 10 0  8 10 0  8.5 10 0  9 10 0  9.5 10 0  10 10 0  10.5 10 0  11 10 0  11.5 10 0  12 10 0  12.5 10 0  13 10 0  13.5 10 0  14 10 0  14.5 10 0  15 10 0  15.5 10 0  16 10 0  16.5 10 0  17 10 0  17.5 10 0  18 10 0  18.5 10 0  19 10 0  19.5 10 0  20 10 0  0 10.5 0  0.5 10.5 0  1 10.5 0  1.5 10.5 0  2 10.5 0  2.5 10.5 0  3 10.5 0  3.5 10.5 0  4 10.5 0  4.5 10.5 0  5 10.5 0  5.5 10.5 0  6 10.5 0  6.5 10.5 0  7 10.5 0  7.5 10.5 0  8 10.5 0  8.5 10.5 0  9 10.5 0  9.5 10.5 0  10 10.5 0  10.5 10.5 0  11 10.5 0  11.5 10.5 0  12 10.5 0  12.5 10.5 0  13 10.5 0  13.5 10.5 0  14 10.5 0  14.5 10.5 0  15 10.5 0  15.5 10.5 0  16 10.5 0  16.5 10.5 0  17 10.5 0  17.5 10.5 0  18 10.5 0  18.5 10.5 0  19 10.5 0  19.5 10.5 0  20 10.5 0  0 11 0  0.5 11 0  1 11 0  1.5 11 0  2 11 0  2.5 11 0  3 11 0  3.5 11 0  4 11 0  4.5 11 0  5 11 0  5.5 11 0  6 11 0  6.5 11 0  7 11 0  7.5 11 0  8 11 0  8.5 11 0  9 11 0  9.5 11 0  10 11 0  10.5 11 0  11 11 0  11.5 11 0  12 11 0  12.5 11 0  13 11 0  13.5 11 0  14 11 0  14.5 11 0  15 11 0  15.5 11 0  16 11 0  16.5 11 0  17 11 0  17.5 11 0  18 11 0  18.5 11 0  19 11 0  19.5 11 0  20 11 0  0 11.5 0  0.5 11.5 0  1 11.5 0  1.5 11.5 0  2 11.5 0  2.5 11.5 0  3 11.5 0  3.5 11.5 0  4 11.5 0  4.5 11.5 0  5 11.5 0  5.5 11.5 0  6 11.5 0  6.5 11.5 0  7 11.5 0  7.5 11.5 0  8 11.5 0  8.5 11.5 0  9 11.5 0  9.5 11.5 0  10 11.5 0  10.5 11.5 0  11 11.5 0  11.5 11.5 0  12 11.5 0  12.5 11.5 0  13 11.5 0  13.5 11.5 0  14 11.5 0  14.5 11.5 0  15 11.5 0  15.5 11.5 0  16 11.5 0  16.5 11.5 0  17 11.5 0  17.5 11.5 0  18 11.5 0  18.5 11.5 0  19 11.5 0  19.5 11.5 0  20 11.5 0  0 12 0  0.5 12 0  1 12 0  1.5 12 0  2 12 0  2.5 12 0  3 12 0  3.5 12 0  4 12 0  4.5 12 0  5 12 0  5.5 12 0  6 12 0  6.5 12 0  7 12 0  7.5 12 0  8 12 0  8.5 12 0  9 12 0  9.5 12 0  10 12 0  10.5 12 0  11 12 0  11.5 12 0  12 12 0  12.5 12 0  13 12 0  13.5 12 0  14 12 0  14.5 12 0  
[...]
<PointData  Scalars="f_5173-1"> 
<DataArray  type="Float64"  Name="f_5173-1"  format="ascii">-3.4283707266723756e-01  -3.4283707264737889e-01  -3.4283707256779167e-01  -3.4283707239595029e-01  -3.4283707205420288e-01  -3.4283707143552694e-01  -3.4283707040283429e-01  -3.4283706878570913e-01  -3.4283706637434425e-01  -3.4283706290792082e-01  -3.4283705805223652e-01  -3.4283705135693643e-01  -3.4283704217444172e-01  -3.4283702950742667e-01  -3.4283701172374165e-01  -3.4283698602667090e-01  -3.4283694747592175e-01  -3.4283688718815819e-01  -3.4283678904820730e-01  -3.4283662373483759e-01  -3.4283633794077317e-01  -3.4283583506552168e-01  -3.4283494092404021e-01  -3.4283334341561478e-01  -3.4283048751428336e-01  -3.4282539472493800e-01  -3.4281635701901725e-01  -3.4280042636395402e-01  -3.4277257929404253e-01  -3.4272437962045232e-01  -3.4264189308209575e-01  -3.4250253538685671e-01  -3.4227048416972605e-01  -3.4189030157747741e-01  -3.4127856542138046e-01  -3.4031366725830864e-01  -3.3882453575560273e-01  -3.3657977238306380e-01  -3.3327914551697385e-01  -3.2854864851023213e-01  -3.2193598033630105e-01  -3.4283707264737889e-01  -3.4283707262705176e-01  -3.4283707256300555e-01  -3.4283707241389727e-01  -3.4283707210446929e-01  -3.4283707152877485e-01  -3.4283707054973289e-01  -3.4283706899645550e-01  -3.4283706665828501e-01  -3.4283706327296215e-01  -3.4283705850374968e-01  -3.4283705189572111e-01  -3.4283704279297283e-01  -3.4283703018299200e-01  -3.4283701240596098e-01  -3.4283698661491824e-01  -3.4283694777872031e-01  -3.4283688685065788e-01  -3.4283678742370094e-01  -3.4283661965927881e-01  -3.4283632934139824e-01  -3.4283581829015475e-01  -3.4283490960877067e-01  -3.4283328660633655e-01  -3.4283038661452803e-01  -3.4282521865889409e-01  -3.4281605479628041e-01  -3.4279991607806426e-01  -3.4277173262758870e-01  -3.4272300143541440e-01  -3.4263969706111447e-01  -3.4249911946695982e-01  -3.4226531404210109e-01  -3.4188271654210539e-01  -3.4126782684345303e-01  -3.4029907324521563e-01  -3.3880562790394347e-01  -3.3655668976860759e-01  -3.3325338750414418e-01  -3.2852559768190120e-01  -3.2193598033630105e-01  -3.4283707256779167e-01  -3.4283707256300555e-01  -3.4283707254589096e-01  -3.4283707247169981e-01  -3.4283707226658011e-01  -3.4283707182536910e-01  -3.4283707101135630e-01  -3.4283706965359401e-01  -3.4283706754086857e-01  -3.4283706440967521e-01  -3.4283705992091335e-01  -3.4283705361535066e-01  -3.4283704482932481e-01  -3.4283703253638559e-01  -3.4283701505171227e-01  -3.4283698948355590e-01  -3.4283695072075021e-01  -3.4283688957416730e-01  -3.4283678938469447e-01  -3.4283661987072561e-01  -3.4283632604443182e-01  -3.4283580839536620e-01  -3.4283488776154802e-01  -3.4283324365188828e-01  -3.4283030713193985e-01  -3.4282507710364879e-01  -3.4281580966069169e-01  -3.4279950141086579e-01  -3.4277104637516581e-01  -3.4272189060236624e-01  -3.4263794097419231e-01  -3.4249641487438548e-01  -3.4226126971892940e-01  -3.4187687044549503e-01  -3.4125970491699920e-01  -3.4028831458228870e-01  -3.3879220711109354e-01  -3.3654128323602228e-01  -3.3323797510078451e-01  -3.2851440787631148e-01  -3.2193598033630105e-01  -3.4283707239595035e-01  -3.4283707241389727e-01  -3.4283707247169981e-01  -3.4283707252258305e-01  -3.4283707249286521e-01  -3.4283707227788934e-01  -3.4283707174121159e-01  -3.4283707071185271e-01  -3.4283706897815286e-01  -3.4283706627551119e-01  -3.4283706226265981e-01  -3.4283705647638069e-01  -3.4283704824588274e-01  -3.4283703653209335e-01  -3.4283701962791102e-01  -3.4283699460229150e-01  -3.4283695627483901e-01  -3.4283689533474893e-01  -3.4283679490995311e-01  -3.4283662434845813e-01  -3.4283632802358194e-01  -3.4283580533446711e-01  -3.4283487528160006e-01  -3.4283321432425895e-01  -3.4283024855781302e-01  -3.4282496895735276e-01  -3.4281561929850424e-01  -3.4279917764431639e-01  -3.4277051117895430e-01  -3.4272102904797508e-01  -3.4263659080269998e-01  -3.4249435913174964e-01  -3.4225823896199692e-01  -3.4187256501818025e-01  -3.4125385181756923e-01  -3.4028077564145454e-01  -3.3878315265129705e-01  -3.3653143273907254e-01  -3.3322886535579671e-01  -3.2850850455936820e-01  -3.2193598033630105e-01  -3.4283707205420288e-01  -3.4283707210446929e-01  -3.4283707226658011e-01  -3.4283707249286521e-01  -3.4283707270953873e-01  -3.4283707281251236e-01  -3.4283707266572960e-01  -3.4283707209827941e-01  -3.4283707089815435e-01  -3.4283706879978287e-01  -3.4283706545991877e-01  -3.4283706041168971e-01  -3.4283705297782235e-01  -3.4283704210793564e-01  -3.4283702607531041e-01  -3.4283700191490529e-01  -3.4283696438740568e-01  -3.4283690407999151e-01  -3.4283680394446459e-01  -3.4283663302632839e-01  -3.4283633518336237e-01  -3.4283580894512666e-01  -3.4283487186427863e-01  -3.4283319802748224e-01  -3.4283020971578593e-01  -3.4282489191208598e-01  -3.4281547923839928e-01  -3.4279893624963020e-01  -3.4277011104956179e-01  -3.4272038734802529e-01  -3.4263559345650413e-01  -3.4249285840459187e-01  -3.4225605938770715e-01  -3.4186952506064849e-01  -3.4124981034593127e-01  -3.4027571114857325e-01  -3.3877727558375426e-01  -3.3652531163193217e-01  -3.3322350610974921e-01  -3.2850524616181370e-01  -3.2193598033630105e-01  -3.4283707143552694e-01  -3.4283707152877485e-01  -3.4283707182536910e-01  -3.4283707227788934e-01  -3.4283707281251236e-01  -3.4283707332571145e-01  -3.4283707368198724e-01  -3.4283707371070971e-01  -3.4283707319973067e-01  -3.4283707188271595e-01  -3.4283706941468989e-01  -3.4283706532549979e-01  -3.4283705893205424e-01  -3.4283704917394336e-01  -3.4283703430734908e-01  -3.4283701133815536e-01  -3.4283697497759780e-01  -3.4283691572873376e-01  -3.4283681640047087e-01  -3.4283664579656808e-01  -3.4283634736865537e-01  -3.4283581897069593e-01  -3.4283487704616566e-01  -3.4283319389037648e-01  -3.4283018894909567e-01  -3.4282484282682035e-01  -3.4281538358564134e-01  -3.4279876631662304e-01  -3.4276982611943524e-01  -3.4271992997680856e-01  -3.4263488668114356e-01  -3.4249180600892010e-01  -3.4225455264391524e-01  -3.4186746054476136e-01  -3.4124712356987341e-01  -3.4027242820079356e-01  -3.3877357738267505e-01  -3.3652159037100149e-01  -3.3322037059545906e-01  -3.2850341005319372e-01  -3.2193598033630105e-01  -3.4283707040283429e-01  -3.4283707054973289e-01  -3.4283707101135630e-01  -3.4283707174121159e-01  -3.4283707266572966e-01  -3.4283707368198724e-01  -3.4283707465520080e-01  -3.4283707541526826e-01  -3.4283707575018146e-01  -3.4283707539314195e-01  -3.4283707399778318e-01  -3.4283707109111761e-01  -3.4283706598493541e-01  -3.4283705761003863e-01  -3.4283704420783900e-01  -3.4283702275957961e-01  -3.4283698793543854e-01  -3.4283693017002559e-01  -3.4283683215818528e-01  -3.4283666251412948e-01  -3.4283636437636200e-01  -3.4283583508638832e-01  -3.4283489025980940e-01  -3.4283320087681912e-01  -3.4283018433770052e-01  -3.4282481814769800e-01  -3.4281532582359819e-01  -3.4279865606019344e-01  -3.4276963543111927e-01  -3.4271962038039916e-01  -3.4263440810729168e-01  -3.4249109816297640e-01  -3.4225355094685922e-01  -3.4186610921055999e-01  -3.4124539784941504e-01  -3.4027036533182631e-01  -3.3877131027827317e-01  -3.3651936934082372e-01  -3.3321854891290198e-01  -3.2850236728289811e-01  -3.2193598033630105e-01  -3.4283706878570913e-01  -3.4283706899645550e-01  -3.4283706965359401e-01  -3.4283707071185271e-01  -3.4283707209827946e-01  -3.4283707371070971e-01  -3.4283707541526826e-01  -3.4283707704266092e-01  -3.4283707838136013e-01  -3.4283707916448453e-01  -3.4283707904470689e-01  -3.4283707754673565e-01  -3.4283707397799146e-01  -3.4283706726169738e-01  -3.4283705562662331e-01  -3.4283703603327109e-01  -3.4283700311797316e-01  -3.4283694726015490e-01  -3.4283685106469414e-01  -3.4283668299939118e-01  -3.4283638596561844e-01  -3.4283585692405627e-01  -3.4283491088633267e-01  -3.4283321789083993e-01  -3.4283019390095998e-01  -3.4282481428929878e-01  -3.4281529951588485e-01  -3.4279859408657248e-01  -3.4276951916922138e-01  -3.4271942480719686e-01  -3.4263410161099134e-01  -3.4249064409674967e-01  -3.4225291217556153e-01  -3.4186525693897823e-01  -3.4124432536699406e-01  -3.4026910545855726e-01  -3.3876995194877302e-01  -3.3651806445549065e-01  -3.3321749761128033e-01  -3.2850177289290988e-01  -3.2193598033630105e-01  -3.4283706637434419e-01  -3.4283706665828501e-01  -3.4283706754086857e-01  -3.4283706897815286e-01  -3.4283707089815435e-01  -3.4283707319973067e-01  -3.4283707575018146e-01  -3.4283707838136013e-01  -3.4283708088263126e-01  -3.4283708298750032e-01  -3.4283708434821059e-01  -3.4283708448779382e-01  -3.4283708271011776e-01  -3.4283707793202312e-01  -3.4283706837158523e-01  -3.4283705097194733e-01  -3.4283702034164598e-01  -3.4283696681580761e-01  -3.4283687292880660e-01  -3.4283670703640429e-01  -3.4283641186260932e-01  -3.4283588408939963e-01  -3.4283493829557327e-01  -3.4283324385840358e-01  -3.4283021575353367e-01  -3.4282482791944585e-01  -3.4281529880920086e-01  -3.4279857025224014e-01  -3.4276946007458514e-01  -3.4271931453319193e-01  -3.4263392060758541e-01  -3.4249037049875852e-01  -3.4225252495967029e-01  -3.4186474150861740e-01  -3.4124368162130514e-01  -3.4026835722707599e-01  -3.3876915486699244e-01  -3.3651730748449332e-01  -3.3321689289571277e-01  -3.2850143164057261e-01  -3.2193598033630105e-01  -3.4283706290792082e-01  -3.4283706327296215e-01  -3.4283706440967521e-01  -3.4283706627551125e-01  -3.4283706879978293e-01  -3.4283707188271595e-01  -3.4283707539314195e-01  -3.4283707916448458e-01  -3.4283708298750032e-01  -3.4283708659665441e-01  -3.4283708964440679e-01  -3.4283709165285603e-01  -3.4283709192322492e-01  -3.4283708936719004e-01  -3.4283708219394571e-01  -3.4283706733221236e-01  -3.4283703936773530e-01  -3.4283698860006628e-01  -3.4283689750833624e-01  -3.4283673436275836e-01  -3.4283644175533978e-01  -3.4283591616569520e-01  -3.4283497186568429e-01  -3.4283327777431599e-01  -3.4283024819775726e-01  -3.4282485612429786e-01  -3.4281531870859694e-01  -3.4279857609334524e-01  -3.4276944406200943e-01  -3.4271926664783908e-01  -3.4263382883167476e-01  -3.4249022176591437e-01  -3.4225230718288197e-01  -3.4186444693273160e-01  -3.4124331139441094e-01  -3.4026792642002424e-01  -3.3876869628097295e-01  -3.3651687186049911e-01  -3.3321654331643757e-01  -3.2850123182782387e-01  -3.2193598033630105e-01  -3.4283705805223652e-01  -3.4283705850374968e-01  -3.4283705992091335e-01  -3.4283706226265981e-01  -3.4283706545991877e-01  -3.4283706941468994e-01  -3.4283707399778318e-01  -3.4283707904470695e-01  -3.4283708434821059e-01  -3.4283708964440684e-01  -3.4283709458674855e-01  -3.4283709869728096e-01  -3.4283710127561212e-01  -3.4283710122953931e-01  -3.4283709676112367e-01  -3.4283708478726249e-01  -3.4283705987505769e-01  -3.4283701229539010e-01  -3.4283692448384417e-01  -3.4283676464492285e-01  -3.4283647527196198e-01  -3.4283595269732736e-01  -3.4283501097523511e-01  -3.4283331870760891e-01  -3.4283028974802038e-01  -3.4282489645652736e-01  -3.4281535514778533e-01  -3.4279860489671055e-01  -3.4276946022258997e-01  -3.4271926381623630e-01  -3.4263379949015987e-01  -3.4249015783020659e-01  -3.4225220121244221e-01  -3.4186429405640539e-01  -3.4124311185873885e-01  -3.4026768832873433e-01  -3.3876843769007586e-01  -3.3651662113805736e-01  -3.3321633690916502e-01  -3.2850110959605217e-01  -3.2193598033630105e-01  -3.4283705135693643e-01  -3.4283705189572111e-01  -3.4283705361535066e-01  -3.4283705647638069e-01  -3.4283706041168971e-01  -3.4283706532549979e-01  -3.4283707109111761e-01  -3.4283707754673565e-01  -3.4283708448779382e-01  -3.4283709165285609e-01  -3.4283709869728102e-01  -3.4283710514409260e-01  -3.4283711029246527e-01  -3.4283711304771763e-01  -3.4283711160654090e-01  -3.4283710287640745e-01  -3.4283708140929747e-01  -3.4283703745291227e-01  -3.4283695340816567e-01  -3.4283679742840339e-01  -3.4283651193211956e-01  -3.4283599314299068e-01  -3.4283505495879618e-01  -3.4283336575913387e-01  -3.4283033908725430e-01  -3.4282494688076348e-01  -3.4281540489843310e-01  -3.4279865151675937e-01  -3.4276950043246601e-01  -3.4271929345710961e-01  -3.4263381360908907e-01  -3.4249015100312846e-01  -3.4225216820468501e-01  -3.4186423088608348e-01  -3.4124301723721695e-01  -3.4026756530264429e-01  -3.3876829513981599e-01  -3.3651647469528828e-01  -3.3321620898233845e-01  -3.2850102865179914e-01  -3.2193598033630105e-01  -3.4283704217444172e-01  -3.4283704279297283e-01  -3.4283704482932481e-01  -3.4283704824588274e-01  -3.4283705297782241e-01  -3.4283705893205424e-01  -3.4283706598493541e-01  -3.4283707397799146e-01  -3.4283708271011781e-01  -3.4283709192322498e-01  -3.4283710127561212e-01  -3.4283711029246527e-01  -3.4283711827387503e-01  -3.4283712412424133e-01  -3.4283712603674626e-01  -3.4283712091177659e-01  -3.4283710328933292e-01  -3.4283706339844466e-01  -3.4283698361216614e-01  -3.4283683204330440e-01  -3.4283655105225780e-01  -3.4283603678031804e-01  -3.4283510300951997e-01  -3.4283341795858596e-01  -3.4283039495031709e-01  -3.4282500562605006e-01  -3.4281546535678459e-01  -3.4279871202932727e-01  -3.4276955875155740e-01  -3.4271934667460174e-01  -3.4263385815209180e-01  -3.4249018275231918e-01  -3.4225218280230452e-01  -3.4186422430014318e-01  -3.4124298662724351e-01  -3.4026751018544088e-01  -3.3876821878857938e-01  -3.3651638565083708e-01  -3.3321612256508881e-01  -3.2850096850342098e-01  -3.2193598033630105e-01  -3.4283702950742662e-01  -3.4283703018299200e-01  -3.4283703253638559e-01  -3.4283703653209335e-01  -3.4283704210793564e-01  -3.4283704917394336e-01  -3.4283705761003869e-01  -3.4283706726169738e-01  -3.4283707793202312e-01  -3.4283708936719010e-01  -3.4283710122953936e-01  -3.4283711304771763e-01  -3.4283712412424133e-01  -3.4283713336433469e-01  -3.4283713895969820e-01  -3.4283713780604896e-01  -3.4283712443440978e-01  -3.4283708905907628e-01  -3.4283701403070488e-01  -3.4283686742948510e-01  -3.4283659156952351e-01  -3.4283608252746850e-01  -3.4283515399607761e-01  -3.4283347407187370e-01  -3.4283045591192240e-01  -3.4282507093529507e-01  -3.4281553421935756e-01  -3.4279878327087404e-01  -3.4276963071955580e-01  -3.4271941713830623e-01  -3.4263392422101258e-01  -3.4249024084975987e-01  -3.4225222875220090e-01  -3.4186425361074957e-01  -3.4124299507768802e-01  -3.4026749482871271e-01  -3.3876817946159499e-01  -3.3651632702012252e-01  -3.3321605665332832e-01  -3.2850091760313010e-01  -3.2193598033630105e-01  -3.4283701172374165e-01  -3.4283701240596098e-01  -3.4283701505171227e-01  -3.4283701962791102e-01  -3.4283702607531041e-01  -3.4283703430734908e-01  -3.4283704420783900e-01  -3.4283705562662331e-01  -3.4283706837158523e-01  -3.4283708219394571e-01  -3.4283709676112367e-01  -3.4283711160654090e-01  -3.4283712603674632e-01  -3.4283713895969820e-01  -3.4283714856784819e-01  -3.4283715175484725e-01  -3.4283714304581753e-01  -3.4283711264406708e-01  -3.4283704288260741e-01  -3.4283690181531512e-01  -3.4283663171868134e-01  -3.4283612861691448e-01  -3.4283520613072349e-01  -3.4283353225841395e-01  -3.4283052002365938e-01  -3.4282514066471520e-01  -3.4281560901443919e-01  -3.4279886225076006e-01  -3.4276971256618699e-01  -3.4271949996454953e-01  -3.4263400542541317e-01  -3.4249031698688831e-01  -3.4225229547907082e-01  -3.4186430581442823e-01  -3.4124302733989031e-01  -3.4026750242022591e-01  -3.3876816005087312e-01  -3.3651628319589172e-01  -3.3321599920467992e-01  -3.2850086935128897e-01  -3.2193598033630105e-01  -3.4283698602667084e-01  -3.4283698661491824e-01  -3.4283698948355590e-01  -3.4283699460229150e-01  -3.4283700191490529e-01  -3.4283701133815531e-01  -3.4283702275957961e-01  -3.4283703603327109e-01  -3.4283705097194733e-01  -3.4283706733221236e-01  -3.4283708478726255e-01  -3.4283710287640745e-01  -3.4283712091177659e-01  -3.4283713780604891e-01  -3.4283715175484719e-01  -3.4283715965261419e-01  -3.4283715602189924e-01  -3.4283713105890484e-01  -3.4283706708360134e-01  -3.4283693212916277e-01  -3.4283666844151617e-01  -3.4283617200152056e-01  -3.4283525636969275e-01  -3.4283358946146414e-01  -3.4283058418634471e-01  -3.4282521162437385e-01  -3.4281568638748267e-01  -3.4279894534371158e-01  -3.4276980025228343e-01  -3.4271959052046397e-01  -3.4263409633256559e-01  -3.4249040472426445e-01  -3.4225237537494019e-01  -3.4186437208450904e-01  -3.4124307351047117e-01  -3.4026752238981345e-01  -3.3876815003804039e-01  -3.3651624470875996e-01  -3.3321594294720458e-01  -3.2850081974961731e-01  -3.2193598033630105e-01  -3.4283694747592169e-01  -3.4283694777872031e-01  -3.4283695072075021e-01  -3.4283695627483901e-01  -3.4283696438740568e-01  -3.4283697497759780e-01  -3.4283698793543854e-01  -3.4283700311797310e-01  -3.4283702034164598e-01  -3.4283703936773535e-01  -3.4283705987505769e-01  -3.4283708140929747e-01  -3.4283710328933292e-01  -3.4283712443440978e-01  -3.4283714304581747e-01  -3.4283715602189924e-01  -3.4283715788632790e-01  -3.4283713883248851e-01  -3.4283708117224532e-01  -3.4283695292377497e-01  -3.4283669630912289e-01  -3.4283620727374187e-01  -3.4283529932747236e-01  -3.4283364031416486e-01  -3.4283064304206085e-01  -3.4282527844643013e-01  -3.4281576092959160e-01  -3.4279902705354176e-01  -3.4276988813151227e-01  -3.4271968293149807e-01  -3.4263419075285412e-01  -3.4249049747540200e-01  -3.4225246140270588e-01  -3.4186444494004792e-01  -3.4124312577107241e-01  -3.4026754682651500e-01  -3.3876814182919651e-01  -3.3651620485487593e-01  -3.3321588275727010e-01  -3.2850076595872046e-01  -3.2193598033630105e-01  -3.4283688718815819e-01  -3.4283688685065788e-01  -3.4283688957416725e-01  -3.4283689533474887e-01  -3.4283690407999151e-01  -3.4283691572873376e-01  -3.4283693017002559e-01  -3.4283694726015490e-01  -3.4283696681580761e-01  -3.4283698860006628e-01  -3.4283701229539010e-01  -3.4283703745291227e-01  -3.4283706339844466e-01  -3.4283708905907628e-01  -3.4283711264406702e-01  -3.4283713105890484e-01  -3.4283713883248851e-01  -3.4283712616028711e-01  -3.4283707535173980e-01  -3.4283695441652340e-01  -3.4283670556021478e-01  -3.4283622470134051e-01  -3.4283532530876787e-01  -3.4283367516573349e-01  -3.4283068699111890e-01  -3.4282533158715833e-01  -3.4281582315553077e-01  -3.4279909795343516e-01  -3.4276996683332644e-01  -3.4271976788093544e-01  -3.4263427942429892e-01  -3.4249058604333016e-01  -3.4225254445900627e-01  -3.4186451543071711e-01  -3.4124317543136834e-01  -3.4026756747584103e-01  -3.3876812787489879e-01  -3.3651615717375472e-01  -3.3321581376471404e-01  -3.2850070527572439e-01  -3.2193598033630105e-01  -3.4283678904820730e-01  -3.4283678742370094e-01  -3.4283678938469447e-01  -3.4283679490995311e-01  -3.4283680394446459e-01  -3.4283681640047087e-01  -3.4283683215818528e-01  -3.4283685106469414e-01  -3.4283687292880655e-01  -3.4283689750833624e-01  -3.4283692448384412e-01  -3.4283695340816567e-01  -3.4283698361216614e-01  -3.4283701403070488e-01  -3.4283704288260736e-01  -3.4283706708360134e-01  -3.4283708117224532e-01  -3.4283707535173980e-01  -3.4283703193589282e-01  -3.4283691893382984e-01  -3.4283667854385486e-01  -3.4283620666818937e-01  -3.4283531674700174e-01  -3.4283367651702046e-01  -3.4283069862361576e-01  -3.4282535375281298e-01  -3.4281585592134661e-01  -3.4279914109178172e-01  -3.4277001965265402e-01  -3.4271982897909342e-01  -3.4263434635891438e-01  -3.4249065494748321e-01  -3.4225260969666244e-01  -3.4186456948955862e-01  -3.4124320937584507e-01  -3.4026757238112026e-01  -3.3876809764610033e-01  -3.3651609293134693e-01  -3.3321572952841327e-01  -3.2850063416845349e-01  -3.2193598033630105e-01  -3.4283662373483764e-01  -3.4283661965927886e-01  -3.4283661987072561e-01  -3.4283662434845813e-01  -3.4283663302632839e-01  -3.4283664579656808e-01  -3.4283666251412942e-01  -3.4283668299939118e-01  -3.4283670703640429e-01  -3.4283673436275830e-01  -3.4283676464492285e-01  -3.4283679742840339e-01  -3.4283683204330440e-01  -3.4283686742948510e-01  -3.4283690181531512e-01  -3.4283693212916277e-01  -3.4283695292377497e-01  -3.4283