<?xml version="1.0"?>
<VTKFile type="UnstructuredGrid"  version="0.1"  >
<UnstructuredGrid>
<Piece  NumberOfPoints="1681" NumberOfCells="3200">
<Points>
<DataArray  type="Float64"  NumberOfComponents="3"  format="ascii">0 0 0  0.5 0 0  1 0 0  1.5 0 0  2 0 0  2.5 0 0  3 0 0  3.5 0 0  4 0 0  4.5 0 0  5 0 0  5.5 0 0  6 0 0  6.5 0 0  7 0 0  7.5 0 0  8 0 0  8.5 0 0  9 0 0  9.5 0 0  10 0 0  10.5 0 0  11 0 0  11.5 0 0  12 0 0  12.5 0 0  13 0 0  13.5 0 0  14 0 0  14.5 0 0  15 0 0  15.5 0 0  16 0 0  16.5 0 0  17 0 0  17.5 0 0  18 0 0  18.5 0 0  19 0 0  19.5 0 0  20 0 0  0 0.5 0  0.5 0.5 0  1 0.5 0  1.5 0.5 0  2 0.5 0  2.5 0.5 0  3 0.5 0  3.5 0.5 0  4 0.5 0  4.5 0.5 0  5 0.5 0  5.5 0.5 0  6 0.5 0  6.5 0.5 0  7 0.5 0  7.5 0.5 0  8 0.5 0  8.5 0.5 0  9 0.5 0  9.5 0.5 0  10 0.5 0  10.5 0.5 0  11 0.5 0  11.5 0.5 0  12 0.5 0  12.5 0.5 0  13 0.5 0  13.5 0.5 0  14 0.5 0  14.5 0.5 0  15 0.5 0  15.5 0.5 0  16 0.5 0  16.5 0.5 0  17 0.5 0  17.5 0.5 0  18 0.5 0  18.5 0.5 0  19 0.5 0  19.5 0.5 0  20 0.5 0  0 1 0  0.5 1 0  1 1 0  1.5 1 0  2 1 0  2.5 1 0  3 1 0  3.5 1 0  4 1 0  4.5 1 0  5 1 0  5.5 1 0  6 1 0  6.5 1 0  7 1 0  7.5 1 0  8 1 0  8.5 1 0  9 1 0  9.5 1 0  10 1 0  10.5 1 0  11 1 0  11.5 1 0  12 1 0  12.5 1 0  13 1 0  13.5 1 0  14 1 0  14.5 1 0  15 1 0  15.5 1 0  16 1 0  16.5 1 0  17 1 0  17.5 1 0  18 1 0  18.5 1 0  19 1 0  19.5 1 0  20 1 0  0 1.5 0  0.5 1.5 0  1 1.5 0  1.5 1.5 0  2 1.5 0  2.5 1.5 0  3 1.5 0  3.5 1.5 0  4 1.5 0  4.5 1.5 0  5 1.5 0  5.5 1.5 0  6 1.5 0  6.5 1.5 0  7 1.5 0  7.5 1.5 0  8 1.5 0  8.5 1.5 0  9 1.5 0  9.5 1.5 0  10 1.5 0  10.5 1.5 0  11 1.5 0  11.5 1.5 0  12 1.5 0  12.5 1.5 0  13 1.5 0  13.5 1.5 0  14 1.5 0  14.5 1.5 0  15 1.5 0  15.5 1.5 0  16 1.5 0  16.5 1.5 0  17 1.5 0  17.5 1.5 0  18 1.5 0  18.5 1.5 0  19 1.5 0  19.5 1.5 0  20 1.5 0  0 2 0  0.5 2 0  1 2 0  1.5 2 0  2 2 0  2.5 2 0  3 2 0  3.5 2 0  4 2 0  4.5 2 0  5 2 0  5.5 2 0  6 2 0  6.5 2 0  7 2 0  7.5 2 0  8 2 0  8.5 2 0  9 2 0  9.5 2 0  10 2 0  10.5 2 0  11 2 0  11.5 2 0  12 2 0  12.5 2 0  13 2 0  13.5 2 0  14 2 0  14.5 2 0  15 2 0  15.5 2 0  16 2 0  16.5 2 0  17 2 0  17.5 2 0  18 2 0  18.5 2 0  19 2 0  19.5 2 0  20 2 0  0 2.5 0  0.5 2.5 0  1 2.5 0  1.5 2.5 0  2 2.5 0  2.5 2.5 0  3 2.5 0  3.5 2.5 0  4 2.5 0  4.5 2.5 0  5 2.5 0  5.5 2.5 0  6 2.5 0  6.5 2.5 0  7 2.5 0  7.5 2.5 0  8 2.5 0  8.5 2.5 0  9 2.5 0  9.5 2.5 0  10 2.5 0  10.5 2.5 0  11 2.5 0  11.5 2.5 0  12 2.5 0  12.5 2.5 0  13 2.5 0  13.5 2.5 0  14 2.5 0  14.5 2.5 0  15 2.5 0  15.5 2.5 0  16 2.5 0  16.5 2.5 0  17 2.5 0  17.5 2.5 0  18 2.5 0  18.5 2.5 0  19 2.5 0  19.5 2.5 0  20 2.5 0  0 3 0  0.5 3 0  1 3 0  1.5 3 0  2 3 0  2.5 3 0  3 3 0  3.5 3 0  4 3 0  4.5 3 0  5 3 0  5.5 3 0  6 3 0  6.5 3 0  7 3 0  7.5 3 0  8 3 0  8.5 3 0  9 3 0  9.5 3 0  10 3 0  10.5 3 0  11 3 0  11.5 3 0  12 3 0  12.5 3 0  13 3 0  13.5 3 0  14 3 0  14.5 3 0  15 3 0  15.5 3 0  16 3 0  16.5 3 0  17 3 0  17.5 3 0  18 3 0  18.5 3 0  19 3 0  19.5 3 0  20 3 0  0 3.5 0  0.5 3.5 0  1 3.5 0  1.5 3.5 0  2 3.5 0  2.5 3.5 0  3 3.5 0  3.5 3.5 0  4 3.5 0  4.5 3.5 0  5 3.5 0  5.5 3.5 0  6 3.5 0  6.5 3.5 0  7 3.5 0  7.5 3.5 0  8 3.5 0  8.5 3.5 0  9 3.5 0  9.5 3.5 0  10 3.5 0  10.5 3.5 0  11 3.5 0  11.5 3.5 0  12 3.5 0  12.5 3.5 0  13 3.5 0  13.5 3.5 0  14 3.5 0  14.5 3.5 0  15 3.5 0  15.5 3.5 0  16 3.5 0  16.5 3.5 0  17 3.5 0  17.5 3.5 0  18 3.5 0  18.5 3.5 0  19 3.5 0  19.5 3.5 0  20 3.5 0  0 4 0  0.5 4 0  1 4 0  1.5 4 0  2 4 0  2.5 4 0  3 4 0  3.5 4 0  4 4 0  4.5 4 0  5 4 0  5.5 4 0  6 4 0  6.5 4 0  7 4 0  7.5 4 0  8 4 0  8.5 4 0  9 4 0  9.5 4 0  10 4 0  10.5 4 0  11 4 0  11.5 4 0  12 4 0  12.5 4 0  13 4 0  13.5 4 0  14 4 0  14.5 4 0  15 4 0  15.5 4 0  16 4 0  16.5 4 0  17 4 0  17.5 4 0  18 4 0  18.5 4 0  19 4 0  19.5 4 0  20 4 0  0 4.5 0  0.5 4.5 0  1 4.5 0  1.5 4.5 0  2 4.5 0  2.5 4.5 0  3 4.5 0  3.5 4.5 0  4 4.5 0  4.5 4.5 0  5 4.5 0  5.5 4.5 0  6 4.5 0  6.5 4.5 0  7 4.5 0  7.5 4.5 0  8 4.5 0  8.5 4.5 0  9 4.5 0  9.5 4.5 0  10 4.5 0  10.5 4.5 0  11 4.5 0  11.5 4.5 0  12 4.5 0  12.5 4.5 0  13 4.5 0  13.5 4.5 0  14 4.5 0  14.5 4.5 0  15 4.5 0  15.5 4.5 0  16 4.5 0  16.5 4.5 0  17 4.5 0  17.5 4.5 0  18 4.5 0  18.5 4.5 0  19 4.5 0  19.5 4.5 0  20 4.5 0  0 5 0  0.5 5 0  1 5 0  1.5 5 0  2 5 0  2.5 5 0  3 5 0  3.5 5 0  4 5 0  4.5 5 0  5 5 0  5.5 5 0  6 5 0  6.5 5 0  7 5 0  7.5 5 0  8 5 0  8.5 5 0  9 5 0  9.5 5 0  10 5 0  10.5 5 0  11 5 0  11.5 5 0  12 5 0  12.5 5 0  13 5 0  13.5 5 0  14 5 0  14.5 5 0  15 5 0  15.5 5 0  16 5 0  16.5 5 0  17 5 0  17.5 5 0  18 5 0  18.5 5 0  19 5 0  19.5 5 0  20 5 0  0 5.5 0  0.5 5.5 0  1 5.5 0  1.5 5.5 0  2 5.5 0  2.5 5.5 0  3 5.5 0  3.5 5.5 0  4 5.5 0  4.5 5.5 0  5 5.5 0  5.5 5.5 0  6 5.5 0  6.5 5.5 0  7 5.5 0  7.5 5.5 0  8 5.5 0  8.5 5.5 0  9 5.5 0  9.5 5.5 0  10 5.5 0  10.5 5.5 0  11 5.5 0  11.5 5.5 0  12 5.5 0  12.5 5.5 0  13 5.5 0  13.5 5.5 0  14 5.5 0  14.5 5.5 0  15 5.5 0  15.5 5.5 0  16 5.5 0  16.5 5.5 0  17 5.5 0  17.5 5.5 0  18 5.5 0  18.5 5.5 0  19 5.5 0  19.5 5.5 0  20 5.5 0  0 6 0  0.5 6 0  1 6 0  1.5 6 0  2 6 0  2.5 6 0  3 6 0  3.5 6 0  4 6 0  4.5 6 0  5 6 0  5.5 6 0  6 6 0  6.5 6 0  7 6 0  7.5 6 0  8 6 0  8.5 6 0  9 6 0  9.5 6 0  10 6 0  10.5 6 0  11 6 0  11.5 6 0  12 6 0  12.5 6 0  13 6 0  13.5 6 0  14 6 0  14.5 6 0  15 6 0  15.5 6 0  16 6 0  16.5 6 0  17 6 0  17.5 6 0  18 6 0  18.5 6 0  19 6 0  19.5 6 0  20 6 0  0 6.5 0  0.5 6.5 0  1 6.5 0  1.5 6.5 0  2 6.5 0  2.5 6.5 0  3 6.5 0  3.5 6.5 0  4 6.5 0  4.5 6.5 0  5 6.5 0  5.5 6.5 0  6 6.5 0  6.5 6.5 0  7 6.5 0  7.5 6.5 0  8 6.5 0  8.5 6.5 0  9 6.5 0  9.5 6.5 0  10 6.5 0  10.5 6.5 0  11 6.5 0  11.5 6.5 0  12 6.5 0  12.5 6.5 0  13 6.5 0  13.5 6.5 0  14 6.5 0  14.5 6.5 0  15 6.5 0  15.5 6.5 0  16 6.5 0  16.5 6.5 0  17 6.5 0  17.5 6.5 0  18 6.5 0  18.5 6.5 0  19 6.5 0  19.5 6.5 0  20 6.5 0  0 7 0  0.5 7 0  1 7 0  1.5 7 0  2 7 0  2.5 7 0  3 7 0  3.5 7 0  4 7 0  4.5 7 0  5 7 0  5.5 7 0  6 7 0  6.5 7 0  7 7 0  7.5 7 0  8 7 0  8.5 7 0  9 7 0  9.5 7 0  10 7 0  10.5 7 0  11 7 0  11.5 7 0  12 7 0  12.5 7 0  13 7 0  13.5 7 0  14 7 0  14.5 7 0  15 7 0  15.5 7 0  16 7 0  16.5 7 0  17 7 0  17.5 7 0  18 7 0  18.5 7 0  19 7 0  19.5 7 0  20 7 0  0 7.5 0  0.5 7.5 0  1 7.5 0  1.5 7.5 0  2 7.5 0  2.5 7.5 0  3 7.5 0  3.5 7.5 0  4 7.5 0  4.5 7.5 0  5 7.5 0  5.5 7.5 0  6 7.5 0  6.5 7.5 0  7 7.5 0  7.5 7.5 0  8 7.5 0  8.5 7.5 0  9 7.5 0  9.5 7.5 0  10 7.5 0  10.5 7.5 0  11 7.5 0  11.5 7.5 0  12 7.5 0  12.5 7.5 0  13 7.5 0  13.5 7.5 0  14 7.5 0  14.5 7.5 0  15 7.5 0  15.5 7.5 0  16 7.5 0  16.5 7.5 0  17 7.5 0  17.5 7.5 0  18 7.5 0  18.5 7.5 0  19 7.5 0  19.5 7.5 0  20 7.5 0  0 8 0  0.5 8 0  1 8 0  1.5 8 0  2 8 0  2.5 8 0  3 8 0  3.5 8 0  4 8 0  4.5 8 0  5 8 0  5.5 8 0  6 8 0  6.5 8 0  7 8 0  7.5 8 0  8 8 0  8.5 8 0  9 8 0  9.5 8 0  10 8 0  10.5 8 0  11 8 0  11.5 8 0  12 8 0  12.5 8 0  13 8 0  13.5 8 0  14 8 0  14.5 8 0  15 8 0  15.5 8 0  16 8 0  16.5 8 0  17 8 0  17.5 8 0  18 8 0  18.5 8 0  19 8 0  19.5 8 0  20 8 0  0 8.5 0  0.5 8.5 0  1 8.5 0  1.5 8.5 0  2 8.5 0  2.5 8.5 0  3 8.5 0  3.5 8.5 0  4 8.5 0  4.5 8.5 0  5 8.5 0  5.5 8.5 0  6 8.5 0  6.5 8.5 0  7 8.5 0  7.5 8.5 0  8 8.5 0  8.5 8.5 0  9 8.5 0  9.5 8.5 0  10 8.5 0  10.5 8.5 0  11 8.5 0  11.5 8.5 0  12 8.5 0  12.5 8.5 0  13 8.5 0  13.5 8.5 0  14 8.5 0  14.5 8.5 0  15 8.5 0  15.5 8.5 0  16 8.5 0  16.5 8.5 0  17 8.5 0  17.5 8.5 0  18 8.5 0  18.5 8.5 0  19 8.5 0  19.5 8.5 0  20 8.5 0  0 9 0  0.5 9 0  1 9 0  1.5 9 0  2 9 0  2.5 9 0  3 9 0  3.5 9 0  4 9 0  4.5 9 0  5 9 0  5.5 9 0  6 9 0  6.5 9 0  7 9 0  7.5 9 0  8 9 0  8.5 9 0  9 9 0  9.5 9 0  10 9 0  10.5 9 0  11 9 0  11.5 9 0  12 9 0  12.5 9 0  13 9 0  13.5 9 0  14 9 0  14.5 9 0  15 9 0  15.5 9 0  16 9 0  16.5 9 0  17 9 0  17.5 9 0  18 9 0  18.5 9 0  19 9 0  19.5 9 0  20 9 0  0 9.5 0  0.5 9.5 0  1 9.5 0  1.5 9.5 0  2 9.5 0  2.5 9.5 0  3 9.5 0  3.5 9.5 0  4 9.5 0  4.5 9.5 0  5 9.5 0  5.5 9.5 0  6 9.5 0  6.5 9.5 0  7 9.5 0  7.5 9.5 0  8 9.5 0  8.5 9.5 0  9 9.5 0  9.5 9.5 0  10 9.5 0  10.5 9.5 0  11 9.5 0  11.5 9.5 0  12 9.5 0  12.5 9.5 0  13 9.5 0  13.5 9.5 0  14 9.5 0  14.5 9.5 0  15 9.5 0  15.5 9.5 0  16 9.5 0  16.5 9.5 0  17 9.5 0  17.5 9.5 0  18 9.5 0  18.5 9.5 0  19 9.5 0  19.5 9.5 0  20 9.5 0  0 10 0  0.5 10 0  1 10 0  1.5 10 0  2 10 0  2.5 10 0  3 10 0  3.5 10 0  4 10 0  4.5 10 0  5 10 0  5.5 10 0  6 10 0  6.5 10 0  7 10 0  7.5 10 0  8 10 0  8.5 10 0  9 10 0  9.5 10 0  10 10 0  10.5 10 0  11 10 0  11.5 10 0  12 10 0  12.5 10 0  13 10 0  13.5 10 0  14 10 0  14.5 10 0  15 10 0  15.5 10 0  16 10 0  16.5 10 0  17 10 0  17.5 10 0  18 10 0  18.5 10 0  19 10 0  19.5 10 0  20 10 0  0 10.5 0  0.5 10.5 0  1 10.5 0  1.5 10.5 0  2 10.5 0  2.5 10.5 0  3 10.5 0  3.5 10.5 0  4 10.5 0  4.5 10.5 0  5 10.5 0  5.5 10.5 0  6 10.5 0  6.5 10.5 0  7 10.5 0  7.5 10.5 0  8 10.5 0  8.5 10.5 0  9 10.5 0  9.5 10.5 0  10 10.5 0  10.5 10.5 0  11 10.5 0  11.5 10.5 0  12 10.5 0  12.5 10.5 0  13 10.5 0  13.5 10.5 0  14 10.5 0  14.5 10.5 0  15 10.5 0  15.5 10.5 0  16 10.5 0  16.5 10.5 0  17 10.5 0  17.5 10.5 0  18 10.5 0  18.5 10.5 0  19 10.5 0  19.5 10.5 0  20 10.5 0  0 11 0  0.5 11 0  1 11 0  1.5 11 0  2 11 0  2.5 11 0  3 11 0  3.5 11 0  4 11 0  4.5 11 0  5 11 0  5.5 11 0  6 11 0  6.5 11 0  7 11 0  7.5 11 0  8 11 0  8.5 11 0  9 11 0  9.5 11 0  10 11 0  10.5 11 0  11 11 0  11.5 11 0  12 11 0  12.5 11 0  13 11 0  13.5 11 0  14 11 0  14.5 11 0  15 11 0  15.5 11 0  16 11 0  16.5 11 0  17 11 0  17.5 11 0  18 11 0  18.5 11 0  19 11 0  19.5 11 0  20 11 0  0 11.5 0  0.5 11.5 0  1 11.5 0  1.5 11.5 0  2 11.5 0  2.5 11.5 0  3 11.5 0  3.5 11.5 0  4 11.5 0  4.5 11.5 0  5 11.5 0  5.5 11.5 0  6 11.5 0  6.5 11.5 0  7 11.5 0  7.5 11.5 0  8 11.5 0  8.5 11.5 0  9 11.5 0  9.5 11.5 0  10 11.5 0  10.5 11.5 0  11 11.5 0  11.5 11.5 0  12 11.5 0  12.5 11.5 0  13 11.5 0  13.5 11.5 0  14 11.5 0  14.5 11.5 0  15 11.5 0  15.5 11.5 0  16 11.5 0  16.5 11.5 0  17 11.5 0  17.5 11.5 0  18 11.5 0  18.5 11.5 0  19 11.5 0  19.5 11.5 0  20 11.5 0  0 12 0  0.5 12 0  1 12 0  1.5 12 0  2 12 0  2.5 12 0  3 12 0  3.5 12 0  4 12 0  4.5 12 0  5 12 0  5.5 12 0  6 12 0  6.5 12 0  7 12 0  7.5 12 0  8 12 0  8.5 12 0  9 12 0  9.5 12 0  10 12 0  10.5 12 0  11 12 0  11.5 12 0  12 12 0  12.5 12 0  13 12 0  13.5 12 0  14 12 0  14.5 12 0  
[...]
<PointData  Scalars="f_5173-1"> 
<DataArray  type="Float64"  Name="f_5173-1"  format="ascii">-3.4284108226646876e-01  -3.4284108199800684e-01  -3.4284108127301655e-01  -3.4284107986923951e-01  -3.4284107738007535e-01  -3.4284107314525214e-01  -3.4284106611122644e-01  -3.4284105459001674e-01  -3.4284103584609649e-01  -3.4284100539372137e-01  -3.4284095581110269e-01  -3.4284087475551367e-01  -3.4284074166894102e-01  -3.4284052235875051e-01  -3.4284016016575447e-01  -3.4283956171290514e-01  -3.4283857415091495e-01  -3.4283694923507430e-01  -3.4283428729333032e-01  -3.4282995095658392e-01  -3.4282293417737403e-01  -3.4281166634366605e-01  -3.4279372407563730e-01  -3.4276541465934407e-01  -3.4272118547530661e-01  -3.4265280423919420e-01  -3.4254824715601867e-01  -3.4239022882782466e-01  -3.4215431233218063e-01  -3.4180655396816839e-01  -3.4130066768992590e-01  -3.4057473985475550e-01  -3.3954758193113932e-01  -3.3811486724641943e-01  -3.3614523996737433e-01  -3.3347658423933091e-01  -3.2991256308687950e-01  -3.2521932519462976e-01  -3.1912180776374266e-01  -3.1129790183821665e-01  -3.0136499117743198e-01  -3.4284108199800684e-01  -3.4284108176817285e-01  -3.4284108107049305e-01  -3.4284107969610145e-01  -3.4284107724318319e-01  -3.4284107304786976e-01  -3.4284106604646203e-01  -3.4284105453278890e-01  -3.4284103574070918e-01  -3.4284100513373444e-01  -3.4284095520675367e-01  -3.4284087348150344e-01  -3.4284073918171426e-01  -3.4284051776709640e-01  -3.4284015203113477e-01  -3.4283954774591180e-01  -3.4283855075732966e-01  -3.4283691084921697e-01  -3.4283422541863340e-01  -3.4282985281590078e-01  -3.4282278086286339e-01  -3.4281143035554806e-01  -3.4279336616149314e-01  -3.4276487992491339e-01  -3.4272039884925648e-01  -3.4265166555046922e-01  -3.4254662632502431e-01  -3.4238796196283511e-01  -3.4215119980897279e-01  -3.4180236176467094e-01  -3.4129513322864019e-01  -3.4056758325636671e-01  -3.3953852286072828e-01  -3.3810364660919767e-01  -3.3613164526782685e-01  -3.3346047957995578e-01  -3.2989393679940238e-01  -3.2519841885664552e-01  -3.1909960949366906e-01  -3.1127830479543483e-01  -3.0136499117743198e-01  -3.4284108127301649e-01  -3.4284108107049305e-01  -3.4284108044855521e-01  -3.4284107919333517e-01  -3.4284107690319371e-01  -3.4284107291059729e-01  -3.4284106614337773e-01  -3.4284105487976996e-01  -3.4284103632679813e-01  -3.4284100590308442e-01  -3.4284095602963022e-01  -3.4284087410806030e-01  -3.4284073916908758e-01  -3.4284051636581730e-01  -3.4284014801054391e-01  -3.4283953912979592e-01  -3.4283853443015089e-01  -3.4283688198021350e-01  -3.4283417663659227e-01  -3.4282977305362516e-01  -3.4282265378120763e-01  -3.4281123225879517e-01  -3.4279306333813897e-01  -3.4276442540264962e-01  -3.4271972865343447e-01  -3.4265069471281157e-01  -3.4254524510728801e-01  -3.4238603302655868e-01  -3.4214855734260330e-01  -3.4179881381359967e-01  -3.4129046858917916e-01  -3.4056158424440591e-01  -3.3953098511395396e-01  -3.3809440717373684e-01  -3.3612062153150718e-01  -3.3344772653884630e-01  -3.2987974433567657e-01  -3.2518350661228740e-01  -3.1908555305144787e-01  -3.1126839437058124e-01  -3.0136499117743198e-01  -3.4284107986923951e-01  -3.4284107969610139e-01  -3.4284107919333517e-01  -3.4284107814201215e-01  -3.4284107613818449e-01  -3.4284107251054202e-01  -3.4284106617940302e-01  -3.4284105540943882e-01  -3.4284103738432165e-01  -3.4284100748350038e-01  -3.4284095806342646e-01  -3.4284087642087480e-01  -3.4284074141842458e-01  -3.4284051794289006e-01  -3.4284014789007955e-01  -3.4283953564362690e-01  -3.4283852493152761e-01  -3.4283686235519611e-01  -3.4283414060744360e-01  -3.4282971120871414e-01  -3.4282255226000274e-01  -3.4281107102463160e-01  -3.4279281399359207e-01  -3.4276404855282633e-01  -3.4271917091273452e-01  -3.4264988559066722e-01  -3.4254409420217202e-01  -3.4238442819769088e-01  -3.4214636479104399e-01  -3.4179588124696414e-01  -3.4128663281794347e-01  -3.4055668463659095e-01  -3.3952488437589062e-01  -3.3808702116480371e-01  -3.3611196080380179e-01  -3.3343795494331624e-01  -3.2986926525584337e-01  -3.2517309326686300e-01  -3.1907652862087182e-01  -3.1126276347691800e-01  -3.0136499117743198e-01  -3.4284107738007530e-01  -3.4284107724318319e-01  -3.4284107690319371e-01  -3.4284107613818449e-01  -3.4284107454172635e-01  -3.4284107143931247e-01  -3.4284106574498474e-01  -3.4284105571190043e-01  -3.4284103850373182e-01  -3.4284100946624751e-01  -3.4284096090034655e-01  -3.4284088001265717e-01  -3.4284074552153571e-01  -3.4284052208610344e-01  -3.4284015124738693e-01  -3.4283953684362789e-01  -3.4283852177628393e-01  -3.4283685141322312e-01  -3.4283411663677638e-01  -3.4282966635851020e-01  -3.4282247499592211e-01  -3.4281094472900975e-01  -3.4279261521294063e-01  -3.4276374491106765e-01  -3.4271871878833021e-01  -3.4264922777779122e-01  -3.4254315794397289e-01  -3.4238312418792582e-01  -3.4214458796977587e-01  -3.4179351443242706e-01  -3.4128355437647734e-01  -3.4055278145922219e-01  -3.3952007140210233e-01  -3.3808126863076177e-01  -3.3610533039170154e-01  -3.3343064600105476e-01  -3.2986167126730359e-01  -3.2516586285139404e-01  -3.1907060321167141e-01  -3.1125930275429536e-01  -3.0136499117743198e-01  -3.4284107314525214e-01  -3.4284107304786976e-01  -3.4284107291059734e-01  -3.4284107251054202e-01  -3.4284107143931247e-01  -3.4284106901982958e-01  -3.4284106416114130e-01  -3.4284105510697421e-01  -3.4284103900429386e-01  -3.4284101117046717e-01  -3.4284096385938989e-01  -3.4284088420142228e-01  -3.4284075079315418e-01  -3.4284052810209370e-01  -3.4284015737189527e-01  -3.4283954198569799e-01  -3.4283852415854471e-01  -3.4283684823902671e-01  -3.4283410362137057e-01  -3.4282963708475994e-01  -3.4282242005394853e-01  -3.4281085060585342e-01  -3.4279246291853377e-01  -3.4276350836741581e-01  -3.4271836307750247e-01  -3.4264870744761405e-01  -3.4254241571071897e-01  -3.4238209054736402e-01  -3.4214318241434527e-01  -3.4179164914121757e-01  -3.4128114135121485e-01  -3.4054974407196748e-01  -3.3951636114929856e-01  -3.3807688750337672e-01  -3.3610035857305709e-01  -3.3342527328288352e-01  -3.2985622774666401e-01  -3.2516083812315083e-01  -3.1906663025429105e-01  -3.1125706285738974e-01  -3.0136499117743198e-01  -3.4284106611122644e-01  -3.4284106604646203e-01  -3.4284106614337773e-01  -3.4284106617940302e-01  -3.4284106574498480e-01  -3.4284106416114130e-01  -3.4284106033311468e-01  -3.4284105249715696e-01  -3.4284103778663527e-01  -3.4284101149546864e-01  -3.4284096583850993e-01  -3.4284088788268385e-01  -3.4284075612344839e-01  -3.4284053486966298e-01  -3.4284016511977389e-01  -3.4283954988340770e-01  -3.4283853081510940e-01  -3.4283685143563197e-01  -3.4283409993738811e-01  -3.4282962138762696e-01  -3.4282238482364902e-01  -3.4281078507171509e-01  -3.4279235200417424e-01  -3.4276333147446203e-01  -3.4271809279601856e-01  -3.4264830836573384e-01  -3.4254184360889367e-01  -3.4238129239804777e-01  -3.4214209774927967e-01  -3.4179021346546512e-01  -3.4127929233086957e-01  -3.4054743114368624e-01  -3.3951355892782020e-01  -3.3807361281944992e-01  -3.3609669004611059e-01  -3.3342137081928719e-01  -3.2985234690032295e-01  -3.2515733043304162e-01  -3.1906391574868054e-01  -3.1125555847819075e-01  -3.0136499117743198e-01  -3.4284105459001674e-01  -3.4284105453278890e-01  -3.4284105487976996e-01  -3.4284105540943882e-01  -3.4284105571190043e-01  -3.4284105510697421e-01  -3.4284105249715696e-01  -3.4284104611296928e-01  -3.4284103307698438e-01  -3.4284100866416739e-01  -3.4284096505754508e-01  -3.4284088927219558e-01  -3.4284075972098610e-01  -3.4284054058357932e-01  -3.4284017265954247e-01  -3.4283955865700866e-01  -3.4283853978046563e-01  -3.4283685888962484e-01  -3.4283410322277758e-01  -3.4282961649626731e-01  -3.4282236587542664e-01  -3.4281074365518122e-01  -3.4279227638036325e-01  -3.4276320567407059e-01  -3.4271789568629457e-01  -3.4264801283026725e-01  -3.4254141607100436e-01  -3.4238069302055735e-01  -3.4214128174478797e-01  -3.4178913402433436e-01  -3.4127790567811617e-01  -3.4054570411813517e-01  -3.3951147917676638e-01  -3.3807120115697303e-01  -3.3609401367258412e-01  -3.3341855489348016e-01  -3.2984958039688606e-01  -3.2515486053109693e-01  -3.1906202409218432e-01  -3.1125451498886786e-01  -3.0136499117743198e-01  -3.4284103584609649e-01  -3.4284103574070923e-01  -3.4284103632679813e-01  -3.4284103738432170e-01  -3.4284103850373182e-01  -3.4284103900429386e-01  -3.4284103778663533e-01  -3.4284103307698438e-01  -3.4284102198950156e-01  -3.4284099978409394e-01  -3.4284095861828395e-01  -3.4284088546548636e-01  -3.4284075867224423e-01  -3.4284054231475575e-01  -3.4284017703396052e-01  -3.4283956529866844e-01  -3.4283854795798263e-01  -3.4283686735249069e-01  -3.4283410997542768e-01  -3.4282961849432647e-01  -3.4282235862979255e-01  -3.4281072073524949e-01  -3.4279222882030830e-01  -3.4276312130878700e-01  -3.4271775847948227e-01  -3.4264780230827435e-01  -3.4254110704178453e-01  -3.4238025583180581e-01  -3.4214068340569209e-01  -3.4178834055818696e-01  -3.4127688605434797e-01  -3.4054443598954798e-01  -3.3950995637575654e-01  -3.3806944244654819e-01  -3.3609207159213700e-01  -3.3341652272513339e-01  -3.2984759444623535e-01  -3.2515309440497914e-01  -3.1906067215939232e-01  -3.1125376487973022e-01  -3.0136499117743198e-01  -3.4284100539372137e-01  -3.4284100513373444e-01  -3.4284100590308442e-01  -3.4284100748350038e-01  -3.4284100946624751e-01  -3.4284101117046717e-01  -3.4284101149546864e-01  -3.4284100866416739e-01  -3.4284099978409394e-01  -3.4284098010321262e-01  -3.4284094175879398e-01  -3.4284087169121397e-01  -3.4284074819457028e-01  -3.4284053526355895e-01  -3.4284017341472273e-01  -3.4283956493010881e-01  -3.4283855038290029e-01  -3.4283687171271537e-01  -3.4283411484024268e-01  -3.4282962163104413e-01  -3.4282235670631533e-01  -3.4281070894888560e-01  -3.4279220045676018e-01  -3.4276306725237565e-01  -3.4271766672254750e-01  -3.4264765754570503e-01  -3.4254089048506270e-01  -3.4237994543115841e-01  -3.4214025471833759e-01  -3.4178776852699044e-01  -3.4127614793821071e-01  -3.4054351558277957e-01  -3.3950884943789655e-01  -3.3806816291921754e-01  -3.3609065771917646e-01  -3.3341504168509511e-01  -3.2984614370539328e-01  -3.2515179797434340e-01  -3.1905967068891983e-01  -3.1125320048385907e-01  -3.0136499117743198e-01  -3.4284095581110263e-01  -3.4284095520675367e-01  -3.4284095602963022e-01  -3.4284095806342646e-01  -3.4284096090034655e-01  -3.4284096385938989e-01  -3.4284096583850993e-01  -3.4284096505754513e-01  -3.4284095861828401e-01  -3.4284094175879404e-01  -3.4284090660001948e-01  -3.4284084005616627e-01  -3.4284072038027597e-01  -3.4284051150378175e-01  -3.4284015384731559e-01  -3.4283954954975415e-01  -3.4283853897384081e-01  -3.4283686375477879e-01  -3.4283410938032682e-01  -3.4282961711168658e-01  -3.4282235074372530e-01  -3.4281069805590675e-01  -3.4279217971306575e-01  -3.4276302993645924e-01  -3.4271760393945899e-01  -3.4264755791213969e-01  -3.4254073996897666e-01  -3.4237972748334256e-01  -3.4213995087067828e-01  -3.4178735965305923e-01  -3.4127561635697440e-01  -3.4054284811244057e-01  -3.3950804135318718e-01  -3.3806722252365995e-01  -3.3608961093331263e-01  -3.3341393573635603e-01  -3.2984504880706333e-01  -3.2515080598102758e-01  -3.1905889032454837e-01  -3.1125275000507885e-01  -3.0136499117743198e-01  -3.4284087475551367e-01  -3.4284087348150344e-01  -3.4284087410806025e-01  -3.4284087642087480e-01  -3.4284088001265722e-01  -3.4284088420142228e-01  -3.4284088788268385e-01  -3.4284088927219558e-01  -3.4284088546548636e-01  -3.4284087169121397e-01  -3.4284084005616633e-01  -3.4284077745316538e-01  -3.4284066210292458e-01  -3.4284045788818623e-01  -3.4284010515680574e-01  -3.4283950594001328e-01  -3.4283850044328890e-01  -3.4283683007525573e-01  -3.4283408000219151e-01  -3.4282959103684629e-01  -3.4282232636031684e-01  -3.4281067293008316e-01  -3.4279215033762678e-01  -3.4276299144419092e-01  -3.4271754980244651e-01  -3.4264747966817677e-01  -3.4254062704281618e-01  -3.4237956720228879e-01  -3.4213972880609050e-01  -3.4178706044245477e-01  -3.4127522516145270e-01  -3.4054235282349787e-01  -3.3950743556509561e-01  -3.3806650912531588e-01  -3.3608880596077517e-01  -3.3341307191125391e-01  -3.2984417805345756e-01  -3.2515000028384150e-01  -3.1905824068928934e-01  -3.1125236407096823e-01  -3.0136499117743198e-01  -3.4284074166894102e-01  -3.4284073918171420e-01  -3.4284073916908758e-01  -3.4284074141842458e-01  -3.4284074552153571e-01  -3.4284075079315424e-01  -3.4284075612344839e-01  -3.4284075972098610e-01  -3.4284075867224423e-01  -3.4284074819457028e-01  -3.4284072038027597e-01  -3.4284066210292458e-01  -3.4284055155661192e-01  -3.4284035258624690e-01  -3.4284000548507843e-01  -3.4283941220516051e-01  -3.4283841283751609e-01  -3.4283674862660579e-01  -3.4283400450584151e-01  -3.4282952096205699e-01  -3.4282226072727939e-01  -3.4281061015135245e-01  -3.4279208802088013e-01  -3.4276292615776793e-01  -3.4271747681385406e-01  -3.4264739267994299e-01  -3.4254051797085461e-01  -3.4237942606928623e-01  -3.4213954385403844e-01  -3.4178681859836602e-01  -3.4127491300797314e-01  -3.4054195821672939e-01  -3.3950694998935854e-01  -3.3806593076782321e-01  -3.3608814333215720e-01  -3.3341234765980132e-01  -3.2984343248262810e-01  -3.2514929407184290e-01  -3.1905765652167384e-01  -3.1125200740362963e-01  -3.0136499117743198e-01  -3.4284052235875051e-01  -3.4284051776709640e-01  -3.4284051636581730e-01  -3.4284051794289006e-01  -3.4284052208610344e-01  -3.4284052810209370e-01  -3.4284053486966298e-01  -3.4284054058357932e-01  -3.4284054231475569e-01  -3.4284053526355890e-01  -3.4284051150378175e-01  -3.4284045788818623e-01  -3.4284035258624690e-01  -3.4284015941189200e-01  -3.4283981861722024e-01  -3.4283923209751282e-01  -3.4283823986379314e-01  -3.4283658304685916e-01  -3.4283384641866665e-01  -3.4282937023796684e-01  -3.4282211691752074e-01  -3.4281047236570950e-01  -3.4279195476812885e-01  -3.4276279514435898e-01  -3.4271734470151355e-01  -3.4264725481301506e-01  -3.4254036810138133e-01  -3.4237925613353826e-01  -3.4213934388835487e-01  -3.4178657692131864e-01  -3.4127461683170435e-01  -3.4054159486875119e-01  -3.3950650890886402e-01  -3.3806540637028354e-01  -3.3608753870538183e-01  -3.3341167887788986e-01  -3.2984273314606177e-01  -3.2514861957872343e-01  -3.1905708764419366e-01  -3.1125165308532393e-01  -3.0136499117743198e-01  -3.4284016016575447e-01  -3.4284015203113477e-01  -3.4284014801054391e-01  -3.4284014789007955e-01  -3.4284015124738693e-01  -3.4284015737189527e-01  -3.4284016511977389e-01  -3.4284017265954247e-01  -3.4284017703396052e-01  -3.4284017341472273e-01  -3.4284015384731559e-01  -3.4284010515680574e-01  -3.4284000548507843e-01  -3.4283981861722024e-01  -3.4283948477288700e-01  -3.4283890580775656e-01  -3.4283792168095123e-01  -3.4283627345176593e-01  -3.4283354579068842e-01  -3.4282907881037150e-01  -3.4282183471228206e-01  -3.4281019910005639e-01  -3.4279168972359908e-01  -3.4276253698868703e-01  -3.4271709125589828e-01  -3.4264700276444721e-01  -3.4254011267466156e-01  -3.4237899076336004e-01  -3.4213905997013599e-01  -3.4178626376895349e-01  -3.4127426202403649e-01  -3.4054118520974597e-01  -3.3950603223724635e-01  -3.3806485440783562e-01  -3.3608691101078519e-01  -3.3341098777680939e-01  -3.2984200927378626e-01  -3.2514791747561267e-01  -3.1905649079956200e-01  -3.1125127806841479e-01  -3.0136499117743198e-01  -3.4283956171290514e-01  -3.4283954774591185e-01  -3.4283953912979592e-01  -3.4283953564362696e-01  -3.4283953684362789e-01  -3.4283954198569799e-01  -3.4283954988340776e-01  -3.4283955865700866e-01  -3.4283956529866844e-01  -3.4283956493010881e-01  -3.4283954954975410e-01  -3.4283950594001328e-01  -3.4283941220516051e-01  -3.4283923209751288e-01  -3.4283890580775656e-01  -3.4283833516446893e-01  -3.4283736009851051e-01  -3.4283572163513953e-01  -3.4283300439794367e-01  -3.4282854842880300e-01  -3.4282131581750885e-01  -3.4280969198934180e-01  -3.4279119441161254e-01  -3.4276205305144475e-01  -3.4271661760834599e-01  -3.4264653736180672e-01  -3.4253965214104581e-01  -3.4237852997762075e-01  -3.4213859168201244e-01  -3.4178577837868501e-01  -3.4127374772954328e-01  -3.4054062879149666e-01  -3.3950542078562568e-01  -3.3806417826795726e-01  -3.3608616809570990e-01  -3.3341018917303622e-01  -3.2984118576292215e-01  -3.2514712630575038e-01  -3.1905582189423642e-01  -3.1125085903537525e-01  -3.0136499117743198e-01  -3.4283857415091501e-01  -3.4283855075732966e-01  -3.4283853443015089e-01  -3.4283852493152761e-01  -3.4283852177628399e-01  -3.4283852415854477e-01  -3.4283853081510945e-01  -3.4283853978046563e-01  -3.4283854795798263e-01  -3.4283855038290029e-01  -3.4283853897384076e-01  -3.4283850044328884e-01  -3.4283841283751604e-01  -3.4283823986379314e-01  -3.4283792168095123e-01  -3.4283736009851051e-01  -3.4283639504006003e-01  -3.4283476753343389e-01  -3.4283206221095813e-01  -3.4282761912242565e-01  -3.4282040035192352e-01  -3.4280879128327024e-01  -3.4279030927068566e-01  -3.4276118404255612e-01  -3.4271576485917321e-01  -3.4264570026690577e-01  -3.4253882896768278e-01  -3.4237771739153439e-01  -3.4213778426096453e-01  -3.4178496825207322e-01  -3.4127292457026054e-01  -3.4053978047455941e-01  -3.3950453508567452e-01  -3.3806324595243592e-01  -3.3608518764096035e-01  -3.3340917306655532e-01  -3.2984016798215537e-01  -3.2514617017260466e-01  -3.1905502725538487e-01  -3.1125036782932547e-01  -3.0136499117743198e-01  -3.4283694923507435e-01  -3.4283691084921697e-01  -3.4283688198021350e-01  -3.4283686235519611e-01  -3.4283685141322318e-01  -3.4283684823902677e-01  -3.4283685143563197e-01  -3.4283685888962490e-01  -3.4283686735249069e-01  -3.4283687171271537e-01  -3.4283686375477873e-01  -3.4283683007525573e-01  -3.4283674862660579e-01  -3.4283658304685910e-01  -3.4283627345176593e-01  -3.4283572163513953e-01  -3.4283476753343389e-01  -3.4283315221709887e-01  -3.4283046039138176e-01  -3.4282603220771701e-01  -3.4281882987407830e-01  -3.4280723890482750e-01  -3.4278877676103842e-01  -3.4275967320279088e-01  -3.4271427736905136e-01  -3.4264423742692618e-01  -3.4253739131854433e-01  -3.4237630421988852e-01  -3.4213639305142329e-01  -3.4178359422522453e-01  -3.4127156055097907e-01  -3.4053841744620822e-01  -3.3950316386795371e-01  -3.3806186044202158e-01  -3.3608378992004301e-01  -3.3340778038161106e-01  -3.2983882114292296e-01  -3.2514494241754288e-01  -3.1905403226247447e-01  -3.1124976558563699e-01  -3.0136499117743198e-01  -3.4283428729333032e-01  -3.4283422541863340e-01  -3.4283417663659227e-01  -3.4283414060744360e-01  -3.4283411663677638e-01  -3.4283410362137062e-01  -3.4283409993738811e-01  -3.4283410322277758e-01  -3.4283410997542774e-01  -3.4283411484024268e-01  -3.4283410938032682e-01  -3.4283408000219145e-01  -3.4283400450584145e-01  -3.4283384641866665e-01  -3.4283354579068842e-01  -3.4283300439794367e-01  -3.4283206221095813e-01  -3.4283046039138176e-01  -3.4282778379929496e-01  -3.4282337281109465e-01  -3.4281618993357627e-01  -3.4280462105004011e-01  -3.4278618404258182e-01  -3.4275710910361679e-01  -3.4271174574392310e-01  -3.4264174233445643e-01  -3.4253493671563812e-01  -3.4237389351245229e-01  -3.4213402854730740e-01  -3.4178127662245078e-01  -3.4126928871457257e-01  -3.4053618886246423e-01  -3.3950097627562958e-01  -3.3805971516416672e-01  -3.3608169728797138e-01  -3.3340576730383747e-01  -3.2983694033536642e-01  -3.2514328218009969e-01  -3.1905272517652183e-01  -3.1124899443700621e-01  -3.0136499117743198e-01  -3.4282995095658397e-01  -3.4282985281590078e-01  -3.4282977305362516e-01  -3.4282971120871419e-01  -3.4282966635851025e-01  -3.4282963708476000e-01  -3.4282962138762696e-01  -3.4282961649626731e-01  -3.4282961849432647e-01  -3.4282962163104413e-01  -3.4282961711168658e-01  -3.4282959103684624e-01  -3.4282952096205699e-01  -3.4282937023796678e-01  -3.4282907881037150e-01  -3.4282854842880295e-01  -3.4282761912242565e-01  -3.4282