<?xml version="1.0"?>
<VTKFile type="UnstructuredGrid"  version="0.1"  >
<UnstructuredGrid>
<Piece  NumberOfPoints="1681" NumberOfCells="3200">
<Points>
<DataArray  type="Float64"  NumberOfComponents="3"  format="ascii">0 0 0  0.5 0 0  1 0 0  1.5 0 0  2 0 0  2.5 0 0  3 0 0  3.5 0 0  4 0 0  4.5 0 0  5 0 0  5.5 0 0  6 0 0  6.5 0 0  7 0 0  7.5 0 0  8 0 0  8.5 0 0  9 0 0  9.5 0 0  10 0 0  10.5 0 0  11 0 0  11.5 0 0  12 0 0  12.5 0 0  13 0 0  13.5 0 0  14 0 0  14.5 0 0  15 0 0  15.5 0 0  16 0 0  16.5 0 0  17 0 0  17.5 0 0  18 0 0  18.5 0 0  19 0 0  19.5 0 0  20 0 0  0 0.5 0  0.5 0.5 0  1 0.5 0  1.5 0.5 0  2 0.5 0  2.5 0.5 0  3 0.5 0  3.5 0.5 0  4 0.5 0  4.5 0.5 0  5 0.5 0  5.5 0.5 0  6 0.5 0  6.5 0.5 0  7 0.5 0  7.5 0.5 0  8 0.5 0  8.5 0.5 0  9 0.5 0  9.5 0.5 0  10 0.5 0  10.5 0.5 0  11 0.5 0  11.5 0.5 0  12 0.5 0  12.5 0.5 0  13 0.5 0  13.5 0.5 0  14 0.5 0  14.5 0.5 0  15 0.5 0  15.5 0.5 0  16 0.5 0  16.5 0.5 0  17 0.5 0  17.5 0.5 0  18 0.5 0  18.5 0.5 0  19 0.5 0  19.5 0.5 0  20 0.5 0  0 1 0  0.5 1 0  1 1 0  1.5 1 0  2 1 0  2.5 1 0  3 1 0  3.5 1 0  4 1 0  4.5 1 0  5 1 0  5.5 1 0  6 1 0  6.5 1 0  7 1 0  7.5 1 0  8 1 0  8.5 1 0  9 1 0  9.5 1 0  10 1 0  10.5 1 0  11 1 0  11.5 1 0  12 1 0  12.5 1 0  13 1 0  13.5 1 0  14 1 0  14.5 1 0  15 1 0  15.5 1 0  16 1 0  16.5 1 0  17 1 0  17.5 1 0  18 1 0  18.5 1 0  19 1 0  19.5 1 0  20 1 0  0 1.5 0  0.5 1.5 0  1 1.5 0  1.5 1.5 0  2 1.5 0  2.5 1.5 0  3 1.5 0  3.5 1.5 0  4 1.5 0  4.5 1.5 0  5 1.5 0  5.5 1.5 0  6 1.5 0  6.5 1.5 0  7 1.5 0  7.5 1.5 0  8 1.5 0  8.5 1.5 0  9 1.5 0  9.5 1.5 0  10 1.5 0  10.5 1.5 0  11 1.5 0  11.5 1.5 0  12 1.5 0  12.5 1.5 0  13 1.5 0  13.5 1.5 0  14 1.5 0  14.5 1.5 0  15 1.5 0  15.5 1.5 0  16 1.5 0  16.5 1.5 0  17 1.5 0  17.5 1.5 0  18 1.5 0  18.5 1.5 0  19 1.5 0  19.5 1.5 0  20 1.5 0  0 2 0  0.5 2 0  1 2 0  1.5 2 0  2 2 0  2.5 2 0  3 2 0  3.5 2 0  4 2 0  4.5 2 0  5 2 0  5.5 2 0  6 2 0  6.5 2 0  7 2 0  7.5 2 0  8 2 0  8.5 2 0  9 2 0  9.5 2 0  10 2 0  10.5 2 0  11 2 0  11.5 2 0  12 2 0  12.5 2 0  13 2 0  13.5 2 0  14 2 0  14.5 2 0  15 2 0  15.5 2 0  16 2 0  16.5 2 0  17 2 0  17.5 2 0  18 2 0  18.5 2 0  19 2 0  19.5 2 0  20 2 0  0 2.5 0  0.5 2.5 0  1 2.5 0  1.5 2.5 0  2 2.5 0  2.5 2.5 0  3 2.5 0  3.5 2.5 0  4 2.5 0  4.5 2.5 0  5 2.5 0  5.5 2.5 0  6 2.5 0  6.5 2.5 0  7 2.5 0  7.5 2.5 0  8 2.5 0  8.5 2.5 0  9 2.5 0  9.5 2.5 0  10 2.5 0  10.5 2.5 0  11 2.5 0  11.5 2.5 0  12 2.5 0  12.5 2.5 0  13 2.5 0  13.5 2.5 0  14 2.5 0  14.5 2.5 0  15 2.5 0  15.5 2.5 0  16 2.5 0  16.5 2.5 0  17 2.5 0  17.5 2.5 0  18 2.5 0  18.5 2.5 0  19 2.5 0  19.5 2.5 0  20 2.5 0  0 3 0  0.5 3 0  1 3 0  1.5 3 0  2 3 0  2.5 3 0  3 3 0  3.5 3 0  4 3 0  4.5 3 0  5 3 0  5.5 3 0  6 3 0  6.5 3 0  7 3 0  7.5 3 0  8 3 0  8.5 3 0  9 3 0  9.5 3 0  10 3 0  10.5 3 0  11 3 0  11.5 3 0  12 3 0  12.5 3 0  13 3 0  13.5 3 0  14 3 0  14.5 3 0  15 3 0  15.5 3 0  16 3 0  16.5 3 0  17 3 0  17.5 3 0  18 3 0  18.5 3 0  19 3 0  19.5 3 0  20 3 0  0 3.5 0  0.5 3.5 0  1 3.5 0  1.5 3.5 0  2 3.5 0  2.5 3.5 0  3 3.5 0  3.5 3.5 0  4 3.5 0  4.5 3.5 0  5 3.5 0  5.5 3.5 0  6 3.5 0  6.5 3.5 0  7 3.5 0  7.5 3.5 0  8 3.5 0  8.5 3.5 0  9 3.5 0  9.5 3.5 0  10 3.5 0  10.5 3.5 0  11 3.5 0  11.5 3.5 0  12 3.5 0  12.5 3.5 0  13 3.5 0  13.5 3.5 0  14 3.5 0  14.5 3.5 0  15 3.5 0  15.5 3.5 0  16 3.5 0  16.5 3.5 0  17 3.5 0  17.5 3.5 0  18 3.5 0  18.5 3.5 0  19 3.5 0  19.5 3.5 0  20 3.5 0  0 4 0  0.5 4 0  1 4 0  1.5 4 0  2 4 0  2.5 4 0  3 4 0  3.5 4 0  4 4 0  4.5 4 0  5 4 0  5.5 4 0  6 4 0  6.5 4 0  7 4 0  7.5 4 0  8 4 0  8.5 4 0  9 4 0  9.5 4 0  10 4 0  10.5 4 0  11 4 0  11.5 4 0  12 4 0  12.5 4 0  13 4 0  13.5 4 0  14 4 0  14.5 4 0  15 4 0  15.5 4 0  16 4 0  16.5 4 0  17 4 0  17.5 4 0  18 4 0  18.5 4 0  19 4 0  19.5 4 0  20 4 0  0 4.5 0  0.5 4.5 0  1 4.5 0  1.5 4.5 0  2 4.5 0  2.5 4.5 0  3 4.5 0  3.5 4.5 0  4 4.5 0  4.5 4.5 0  5 4.5 0  5.5 4.5 0  6 4.5 0  6.5 4.5 0  7 4.5 0  7.5 4.5 0  8 4.5 0  8.5 4.5 0  9 4.5 0  9.5 4.5 0  10 4.5 0  10.5 4.5 0  11 4.5 0  11.5 4.5 0  12 4.5 0  12.5 4.5 0  13 4.5 0  13.5 4.5 0  14 4.5 0  14.5 4.5 0  15 4.5 0  15.5 4.5 0  16 4.5 0  16.5 4.5 0  17 4.5 0  17.5 4.5 0  18 4.5 0  18.5 4.5 0  19 4.5 0  19.5 4.5 0  20 4.5 0  0 5 0  0.5 5 0  1 5 0  1.5 5 0  2 5 0  2.5 5 0  3 5 0  3.5 5 0  4 5 0  4.5 5 0  5 5 0  5.5 5 0  6 5 0  6.5 5 0  7 5 0  7.5 5 0  8 5 0  8.5 5 0  9 5 0  9.5 5 0  10 5 0  10.5 5 0  11 5 0  11.5 5 0  12 5 0  12.5 5 0  13 5 0  13.5 5 0  14 5 0  14.5 5 0  15 5 0  15.5 5 0  16 5 0  16.5 5 0  17 5 0  17.5 5 0  18 5 0  18.5 5 0  19 5 0  19.5 5 0  20 5 0  0 5.5 0  0.5 5.5 0  1 5.5 0  1.5 5.5 0  2 5.5 0  2.5 5.5 0  3 5.5 0  3.5 5.5 0  4 5.5 0  4.5 5.5 0  5 5.5 0  5.5 5.5 0  6 5.5 0  6.5 5.5 0  7 5.5 0  7.5 5.5 0  8 5.5 0  8.5 5.5 0  9 5.5 0  9.5 5.5 0  10 5.5 0  10.5 5.5 0  11 5.5 0  11.5 5.5 0  12 5.5 0  12.5 5.5 0  13 5.5 0  13.5 5.5 0  14 5.5 0  14.5 5.5 0  15 5.5 0  15.5 5.5 0  16 5.5 0  16.5 5.5 0  17 5.5 0  17.5 5.5 0  18 5.5 0  18.5 5.5 0  19 5.5 0  19.5 5.5 0  20 5.5 0  0 6 0  0.5 6 0  1 6 0  1.5 6 0  2 6 0  2.5 6 0  3 6 0  3.5 6 0  4 6 0  4.5 6 0  5 6 0  5.5 6 0  6 6 0  6.5 6 0  7 6 0  7.5 6 0  8 6 0  8.5 6 0  9 6 0  9.5 6 0  10 6 0  10.5 6 0  11 6 0  11.5 6 0  12 6 0  12.5 6 0  13 6 0  13.5 6 0  14 6 0  14.5 6 0  15 6 0  15.5 6 0  16 6 0  16.5 6 0  17 6 0  17.5 6 0  18 6 0  18.5 6 0  19 6 0  19.5 6 0  20 6 0  0 6.5 0  0.5 6.5 0  1 6.5 0  1.5 6.5 0  2 6.5 0  2.5 6.5 0  3 6.5 0  3.5 6.5 0  4 6.5 0  4.5 6.5 0  5 6.5 0  5.5 6.5 0  6 6.5 0  6.5 6.5 0  7 6.5 0  7.5 6.5 0  8 6.5 0  8.5 6.5 0  9 6.5 0  9.5 6.5 0  10 6.5 0  10.5 6.5 0  11 6.5 0  11.5 6.5 0  12 6.5 0  12.5 6.5 0  13 6.5 0  13.5 6.5 0  14 6.5 0  14.5 6.5 0  15 6.5 0  15.5 6.5 0  16 6.5 0  16.5 6.5 0  17 6.5 0  17.5 6.5 0  18 6.5 0  18.5 6.5 0  19 6.5 0  19.5 6.5 0  20 6.5 0  0 7 0  0.5 7 0  1 7 0  1.5 7 0  2 7 0  2.5 7 0  3 7 0  3.5 7 0  4 7 0  4.5 7 0  5 7 0  5.5 7 0  6 7 0  6.5 7 0  7 7 0  7.5 7 0  8 7 0  8.5 7 0  9 7 0  9.5 7 0  10 7 0  10.5 7 0  11 7 0  11.5 7 0  12 7 0  12.5 7 0  13 7 0  13.5 7 0  14 7 0  14.5 7 0  15 7 0  15.5 7 0  16 7 0  16.5 7 0  17 7 0  17.5 7 0  18 7 0  18.5 7 0  19 7 0  19.5 7 0  20 7 0  0 7.5 0  0.5 7.5 0  1 7.5 0  1.5 7.5 0  2 7.5 0  2.5 7.5 0  3 7.5 0  3.5 7.5 0  4 7.5 0  4.5 7.5 0  5 7.5 0  5.5 7.5 0  6 7.5 0  6.5 7.5 0  7 7.5 0  7.5 7.5 0  8 7.5 0  8.5 7.5 0  9 7.5 0  9.5 7.5 0  10 7.5 0  10.5 7.5 0  11 7.5 0  11.5 7.5 0  12 7.5 0  12.5 7.5 0  13 7.5 0  13.5 7.5 0  14 7.5 0  14.5 7.5 0  15 7.5 0  15.5 7.5 0  16 7.5 0  16.5 7.5 0  17 7.5 0  17.5 7.5 0  18 7.5 0  18.5 7.5 0  19 7.5 0  19.5 7.5 0  20 7.5 0  0 8 0  0.5 8 0  1 8 0  1.5 8 0  2 8 0  2.5 8 0  3 8 0  3.5 8 0  4 8 0  4.5 8 0  5 8 0  5.5 8 0  6 8 0  6.5 8 0  7 8 0  7.5 8 0  8 8 0  8.5 8 0  9 8 0  9.5 8 0  10 8 0  10.5 8 0  11 8 0  11.5 8 0  12 8 0  12.5 8 0  13 8 0  13.5 8 0  14 8 0  14.5 8 0  15 8 0  15.5 8 0  16 8 0  16.5 8 0  17 8 0  17.5 8 0  18 8 0  18.5 8 0  19 8 0  19.5 8 0  20 8 0  0 8.5 0  0.5 8.5 0  1 8.5 0  1.5 8.5 0  2 8.5 0  2.5 8.5 0  3 8.5 0  3.5 8.5 0  4 8.5 0  4.5 8.5 0  5 8.5 0  5.5 8.5 0  6 8.5 0  6.5 8.5 0  7 8.5 0  7.5 8.5 0  8 8.5 0  8.5 8.5 0  9 8.5 0  9.5 8.5 0  10 8.5 0  10.5 8.5 0  11 8.5 0  11.5 8.5 0  12 8.5 0  12.5 8.5 0  13 8.5 0  13.5 8.5 0  14 8.5 0  14.5 8.5 0  15 8.5 0  15.5 8.5 0  16 8.5 0  16.5 8.5 0  17 8.5 0  17.5 8.5 0  18 8.5 0  18.5 8.5 0  19 8.5 0  19.5 8.5 0  20 8.5 0  0 9 0  0.5 9 0  1 9 0  1.5 9 0  2 9 0  2.5 9 0  3 9 0  3.5 9 0  4 9 0  4.5 9 0  5 9 0  5.5 9 0  6 9 0  6.5 9 0  7 9 0  7.5 9 0  8 9 0  8.5 9 0  9 9 0  9.5 9 0  10 9 0  10.5 9 0  11 9 0  11.5 9 0  12 9 0  12.5 9 0  13 9 0  13.5 9 0  14 9 0  14.5 9 0  15 9 0  15.5 9 0  16 9 0  16.5 9 0  17 9 0  17.5 9 0  18 9 0  18.5 9 0  19 9 0  19.5 9 0  20 9 0  0 9.5 0  0.5 9.5 0  1 9.5 0  1.5 9.5 0  2 9.5 0  2.5 9.5 0  3 9.5 0  3.5 9.5 0  4 9.5 0  4.5 9.5 0  5 9.5 0  5.5 9.5 0  6 9.5 0  6.5 9.5 0  7 9.5 0  7.5 9.5 0  8 9.5 0  8.5 9.5 0  9 9.5 0  9.5 9.5 0  10 9.5 0  10.5 9.5 0  11 9.5 0  11.5 9.5 0  12 9.5 0  12.5 9.5 0  13 9.5 0  13.5 9.5 0  14 9.5 0  14.5 9.5 0  15 9.5 0  15.5 9.5 0  16 9.5 0  16.5 9.5 0  17 9.5 0  17.5 9.5 0  18 9.5 0  18.5 9.5 0  19 9.5 0  19.5 9.5 0  20 9.5 0  0 10 0  0.5 10 0  1 10 0  1.5 10 0  2 10 0  2.5 10 0  3 10 0  3.5 10 0  4 10 0  4.5 10 0  5 10 0  5.5 10 0  6 10 0  6.5 10 0  7 10 0  7.5 10 0  8 10 0  8.5 10 0  9 10 0  9.5 10 0  10 10 0  10.5 10 0  11 10 0  11.5 10 0  12 10 0  12.5 10 0  13 10 0  13.5 10 0  14 10 0  14.5 10 0  15 10 0  15.5 10 0  16 10 0  16.5 10 0  17 10 0  17.5 10 0  18 10 0  18.5 10 0  19 10 0  19.5 10 0  20 10 0  0 10.5 0  0.5 10.5 0  1 10.5 0  1.5 10.5 0  2 10.5 0  2.5 10.5 0  3 10.5 0  3.5 10.5 0  4 10.5 0  4.5 10.5 0  5 10.5 0  5.5 10.5 0  6 10.5 0  6.5 10.5 0  7 10.5 0  7.5 10.5 0  8 10.5 0  8.5 10.5 0  9 10.5 0  9.5 10.5 0  10 10.5 0  10.5 10.5 0  11 10.5 0  11.5 10.5 0  12 10.5 0  12.5 10.5 0  13 10.5 0  13.5 10.5 0  14 10.5 0  14.5 10.5 0  15 10.5 0  15.5 10.5 0  16 10.5 0  16.5 10.5 0  17 10.5 0  17.5 10.5 0  18 10.5 0  18.5 10.5 0  19 10.5 0  19.5 10.5 0  20 10.5 0  0 11 0  0.5 11 0  1 11 0  1.5 11 0  2 11 0  2.5 11 0  3 11 0  3.5 11 0  4 11 0  4.5 11 0  5 11 0  5.5 11 0  6 11 0  6.5 11 0  7 11 0  7.5 11 0  8 11 0  8.5 11 0  9 11 0  9.5 11 0  10 11 0  10.5 11 0  11 11 0  11.5 11 0  12 11 0  12.5 11 0  13 11 0  13.5 11 0  14 11 0  14.5 11 0  15 11 0  15.5 11 0  16 11 0  16.5 11 0  17 11 0  17.5 11 0  18 11 0  18.5 11 0  19 11 0  19.5 11 0  20 11 0  0 11.5 0  0.5 11.5 0  1 11.5 0  1.5 11.5 0  2 11.5 0  2.5 11.5 0  3 11.5 0  3.5 11.5 0  4 11.5 0  4.5 11.5 0  5 11.5 0  5.5 11.5 0  6 11.5 0  6.5 11.5 0  7 11.5 0  7.5 11.5 0  8 11.5 0  8.5 11.5 0  9 11.5 0  9.5 11.5 0  10 11.5 0  10.5 11.5 0  11 11.5 0  11.5 11.5 0  12 11.5 0  12.5 11.5 0  13 11.5 0  13.5 11.5 0  14 11.5 0  14.5 11.5 0  15 11.5 0  15.5 11.5 0  16 11.5 0  16.5 11.5 0  17 11.5 0  17.5 11.5 0  18 11.5 0  18.5 11.5 0  19 11.5 0  19.5 11.5 0  20 11.5 0  0 12 0  0.5 12 0  1 12 0  1.5 12 0  2 12 0  2.5 12 0  3 12 0  3.5 12 0  4 12 0  4.5 12 0  5 12 0  5.5 12 0  6 12 0  6.5 12 0  7 12 0  7.5 12 0  8 12 0  8.5 12 0  9 12 0  9.5 12 0  10 12 0  10.5 12 0  11 12 0  11.5 12 0  12 12 0  12.5 12 0  13 12 0  13.5 12 0  14 12 0  14.5 12 0  
[...]
<PointData  Scalars="f_5173-1"> 
<DataArray  type="Float64"  Name="f_5173-1"  format="ascii">-3.4283967151960681e-01  -3.4283967140728211e-01  -3.4283967108610680e-01  -3.4283967045465880e-01  -3.4283966931817328e-01  -3.4283966738060134e-01  -3.4283966420376333e-01  -3.4283965913309633e-01  -3.4283965116563719e-01  -3.4283963871628614e-01  -3.4283961920666411e-01  -3.4283958834715633e-01  -3.4283953889261315e-01  -3.4283945850264580e-01  -3.4283932609217826e-01  -3.4283910566059850e-01  -3.4283873595311826e-01  -3.4283811330942693e-01  -3.4283706351087384e-01  -3.4283529609666691e-01  -3.4283233114922274e-01  -3.4282738353571218e-01  -3.4281918257018335e-01  -3.4280569558172325e-01  -3.4278371166124449e-01  -3.4274822705713248e-01  -3.4269155723992117e-01  -3.4260208477397708e-01  -3.4246254078828814e-01  -3.4224771700629369e-01  -3.4192152261322073e-01  -3.4143334354604893e-01  -3.4071373609716099e-01  -3.3966958954192306e-01  -3.3817900824187808e-01  -3.3608625865380248e-01  -3.3319714587904337e-01  -3.2927504546009795e-01  -3.2403737038854535e-01  -3.1715106845120539e-01  -3.0822198756372166e-01  -3.4283967140728211e-01  -3.4283967131050957e-01  -3.4283967101359714e-01  -3.4283967041421326e-01  -3.4283966932128324e-01  -3.4283966743860322e-01  -3.4283966432482998e-01  -3.4283965931906324e-01  -3.4283965140717448e-01  -3.4283963898478353e-01  -3.4283961944046426e-01  -3.4283958842836948e-01  -3.4283953860844901e-01  -3.4283945748160660e-01  -3.4283932369996545e-01  -3.4283910083240565e-01  -3.4283872692711648e-01  -3.4283809720962577e-01  -3.4283703570520802e-01  -3.4283524922781761e-01  -3.4283225370251780e-01  -3.4282725777451639e-01  -3.4281898164327407e-01  -3.4280537960497176e-01  -3.4278322262194844e-01  -3.4274748251676895e-01  -3.4269044305760360e-01  -3.4260044746907209e-01  -3.4246018070832068e-01  -3.4224438410759139e-01  -3.4191691724769047e-01  -3.4142712492840088e-01  -3.4070554080642079e-01  -3.3965906132931167e-01  -3.3816583899538200e-01  -3.3607024076760361e-01  -3.3317824631752130e-01  -3.2925356163770653e-01  -3.2401444909112520e-01  -3.1713089221071927e-01  -3.0822198756372166e-01  -3.4283967108610680e-01  -3.4283967101359714e-01  -3.4283967078596311e-01  -3.4283967029671575e-01  -3.4283966935603388e-01  -3.4283966766728169e-01  -3.4283966478677969e-01  -3.4283966004849159e-01  -3.4283965242868730e-01  -3.4283964030599884e-01  -3.4283962103966265e-01  -3.4283959023388394e-01  -3.4283954046452192e-01  -3.4283945909236474e-01  -3.4283932453849475e-01  -3.4283909999498746e-01  -3.4283872290272965e-01  -3.4283808752098716e-01  -3.4283701635925384e-01  -3.4283521389055654e-01  -3.4283219248689972e-01  -3.4282715550413978e-01  -3.4281881543722625e-01  -3.4280511563352889e-01  -3.4278281193020799e-01  -3.4274685593176646e-01  -3.4268950541629900e-01  -3.4259907175723014e-01  -3.4245820319070119e-01  -3.4224160212319821e-01  -3.4191309194543973e-01  -3.4142199167995546e-01  -3.4069883022139058e-01  -3.3965053379635685e-01  -3.3815533622680294e-01  -3.3605776128490511e-01  -3.3316406409150290e-01  -3.2923844102892891e-01  -3.2400008280331405e-01  -3.1712074826855158e-01  -3.0822198756372166e-01  -3.4283967045465880e-01  -3.4283967041421326e-01  -3.4283967029671575e-01  -3.4283966999242632e-01  -3.4283966931098414e-01  -3.4283966795506005e-01  -3.4283966547888955e-01  -3.4283966121203546e-01  -3.4283965412249789e-01  -3.4283964257414085e-01  -3.4283962390057104e-01  -3.4283959366233718e-01  -3.4283954436196817e-01  -3.4283946323853531e-01  -3.4283932851334670e-01  -3.4283910305429527e-01  -3.4283872378249086e-01  -3.4283808413459854e-01  -3.4283700533673500e-01  -3.4283518989109063e-01  -3.4283214719596505e-01  -3.4282707620801156e-01  -3.4281868305753421e-01  -3.4280490211459680e-01  -3.4278247691976288e-01  -3.4274634280484823e-01  -3.4268873688964846e-01  -3.4259794565037849e-01  -3.4245658931832557e-01  -3.4223934182795968e-01  -3.4191000233474828e-01  -3.4141787710850779e-01  -3.4069350386647590e-01  -3.3964385233117556e-01  -3.3814725095087195e-01  -3.3604839045304713e-01  -3.3315379457720984e-01  -3.2922807110342289e-01  -3.2399100431998445e-01  -3.1711505847973948e-01  -3.0822198756372166e-01  -3.4283966931817333e-01  -3.4283966932128324e-01  -3.4283966935603388e-01  -3.4283966931098409e-01  -3.4283966899497553e-01  -3.4283966811023281e-01  -3.4283966620943040e-01  -3.4283966261853532e-01  -3.4283965629856605e-01  -3.4283964560075142e-01  -3.4283962783665745e-01  -3.4283959852927309e-01  -3.4283955011819106e-01  -3.4283946973845003e-01  -3.4283933544147771e-01  -3.4283910982103727e-01  -3.4283872936129361e-01  -3.4283808681158301e-01  -3.4283700233235809e-01  -3.4283517679984238e-01  -3.4283211717554118e-01  -3.4282701883709521e-01  -3.4281858277720734e-01  -3.4280473618233515e-01  -3.4278221285148897e-01  -3.4274593537865511e-01  -3.4268812495578993e-01  -3.4259704925384754e-01  -3.4245530799774537e-01  -3.4223755538678297e-01  -3.4190757582946796e-01  -3.4141467216505972e-01  -3.4068939859854469e-01  -3.3963877198684528e-01  -3.3814121089187454e-01  -3.3604155201959074e-01  -3.3314653190103860e-01  -3.2922103931216440e-01  -3.2398517599528165e-01  -3.1711163433016032e-01  -3.0822198756372166e-01  -3.4283966738060134e-01  -3.4283966743860317e-01  -3.4283966766728163e-01  -3.4283966795506005e-01  -3.4283966811023275e-01  -3.4283966783481085e-01  -3.4283966668049715e-01  -3.4283966397057075e-01  -3.4283965866042260e-01  -3.4283964909076758e-01  -3.4283963255460070e-01  -3.4283960454315771e-01  -3.4283955744289946e-01  -3.4283947830138911e-01  -3.4283934502797814e-01  -3.4283911998857036e-01  -3.4283873930650538e-01  -3.4283809516736952e-01  -3.4283700686364499e-01  -3.4283517395677943e-01  -3.4283210145274229e-01  -3.4282698188010202e-01  -3.4281851217752624e-01  -3.4280461391822092e-01  -3.4278201337467157e-01  -3.4274562343211756e-01  -3.4268765335025830e-01  -3.4259635704288588e-01  -3.4245431977346419e-01  -3.4223618274745832e-01  -3.4190572238954087e-01  -3.4141224368761053e-01  -3.4068631979007102e-01  -3.3963501103021687e-01  -3.3813681168703458e-01  -3.3603667199187226e-01  -3.3314147933085214e-01  -3.2921629672837566e-01  -3.2398138272408783e-01  -3.1710948277748163e-01  -3.0822198756372166e-01  -3.4283966420376333e-01  -3.4283966432482998e-01  -3.4283966478677969e-01  -3.4283966547888955e-01  -3.4283966620943040e-01  -3.4283966668049715e-01  -3.4283966644338243e-01  -3.4283966481957617e-01  -3.4283966076019134e-01  -3.4283965259750315e-01  -3.4283963760924729e-01  -3.4283961126034507e-01  -3.4283956589318354e-01  -3.4283948848298673e-01  -3.4283935682223443e-01  -3.4283913309060082e-01  -3.4283875311860712e-01  -3.4283810863773534e-01  -3.4283701824666957e-01  -3.4283518046423356e-01  -3.4283209875845211e-01  -3.4282696343682495e-01  -3.4281846830751228e-01  -3.4280453065480188e-01  -3.4278187106992991e-01  -3.4274539521605696e-01  -3.4268730364076871e-01  -3.4259584046998159e-01  -3.4245358109169860e-01  -3.4223515854282871e-01  -3.4190434558694610e-01  -3.4141045193923641e-01  -3.4068406864159101e-01  -3.3963229215453195e-01  -3.3813367525235655e-01  -3.3603325017020791e-01  -3.3313800479793132e-01  -3.2921310560067973e-01  -3.2397888645294298e-01  -3.1710809225079489e-01  -3.0822198756372166e-01  -3.4283965913309633e-01  -3.4283965931906324e-01  -3.4283966004849159e-01  -3.4283966121203546e-01  -3.4283966261853532e-01  -3.4283966397057075e-01  -3.4283966481957617e-01  -3.4283966448611031e-01  -3.4283966191830056e-01  -3.4283965544195250e-01  -3.4283964232263797e-01  -3.4283961800396073e-01  -3.4283957479243277e-01  -3.4283949960447296e-01  -3.4283937013799387e-01  -3.4283914842295143e-01  -3.4283877005619995e-01  -3.4283812640972045e-01  -3.4283703553745748e-01  -3.4283519514655325e-01  -3.4283210751825344e-01  -3.4282696126191731e-01  -3.4281844781583987e-01  -3.4280448125269475e-01  -3.4278177796199433e-01  -3.4274523834411519e-01  -3.4268705671636912e-01  -3.4259547038637383e-01  -3.4245304815020955e-01  -3.4223441808187544e-01  -3.4190335171156278e-01  -3.4140916403737587e-01  -3.4068246113488404e-01  -3.3963036734438029e-01  -3.3813147807696703e-01  -3.3603088213031762e-01  -3.3313563232467164e-01  -3.2921095614681761e-01  -3.2397722477807589e-01  -3.1710717243483399e-01  -3.0822198756372166e-01  -3.4283965116563719e-01  -3.4283965140717454e-01  -3.4283965242868730e-01  -3.4283965412249789e-01  -3.4283965629856605e-01  -3.4283965866042260e-01  -3.4283966076019134e-01  -3.4283966191830056e-01  -3.4283966108109015e-01  -3.4283965656971338e-01  -3.4283964564040426e-01  -3.4283962371994692e-01  -3.4283958308625390e-01  -3.4283951060879031e-01  -3.4283938391020757e-01  -3.4283916490201599e-01  -3.4283878899757919e-01  -3.4283814728888123e-01  -3.4283705740922993e-01  -3.4283521644451442e-01  -3.4283212577579919e-01  -3.4282697273633345e-01  -3.4281844700083053e-01  -3.4280446027695477e-01  -3.4278172589606581e-01  -3.4274514048000088e-01  -3.4268689394833279e-01  -3.4259521890759553e-01  -3.4245267978129440e-01  -3.4223390164342682e-01  -3.4190265590578056e-01  -3.4140826225415338e-01  -3.4068133837154935e-01  -3.3962902895071795e-01  -3.3812995926622375e-01  -3.3602925617319890e-01  -3.3313401426459138e-01  -3.2920949819953432e-01  -3.2397610014752132e-01  -3.1710654731181570e-01  -3.0822198756372166e-01  -3.4283963871628614e-01  -3.4283963898478353e-01  -3.4283964030599889e-01  -3.4283964257414085e-01  -3.4283964560075142e-01  -3.4283964909076753e-01  -3.4283965259750315e-01  -3.4283965544195250e-01  -3.4283965656971338e-01  -3.4283965429888902e-01  -3.4283964587887222e-01  -3.4283962672357937e-01  -3.4283958908864803e-01  -3.4283951980676874e-01  -3.4283939644170913e-01  -3.4283918081275461e-01  -3.4283880819138401e-01  -3.4283816945480466e-01  -3.4283708191641382e-01  -3.4283524219371853e-01  -3.4283215099502262e-01  -3.4282699470816114e-01  -3.4281846171272751e-01  -3.4280446199515036e-01  -3.4278170668202934e-01  -3.4274508969911893e-01  -3.4268679786567330e-01  -3.4259506052513750e-01  -3.4245243913843548e-01  -3.4223355686226808e-01  -3.4190218528641059e-01  -3.4140764767178555e-01  -3.4068057004841473e-01  -3.3962811133046167e-01  -3.3812891720172650e-01  -3.3602814001854342e-01  -3.3313290192375999e-01  -3.2920849206323954e-01  -3.2397531761350323e-01  -3.1710610568394942e-01  -3.0822198756372166e-01  -3.4283961920666411e-01  -3.4283961944046426e-01  -3.4283962103966265e-01  -3.4283962390057104e-01  -3.4283962783665745e-01  -3.4283963255460070e-01  -3.4283963760924729e-01  -3.4283964232263797e-01  -3.4283964564040426e-01  -3.4283964587887222e-01  -3.4283964028266301e-01  -3.4283962425616277e-01  -3.4283959003809106e-01  -3.4283952443293120e-01  -3.4283940495920995e-01  -3.4283919336557095e-01  -3.4283882481543898e-01  -3.4283819002363602e-01  -3.4283710606358170e-01  -3.4283526920421320e-01  -3.4283217965699092e-01  -3.4282702311653679e-01  -3.4281848701899342e-01  -3.4280448010416287e-01  -3.4278171190968482e-01  -3.4274507442585150e-01  -3.4268675225187500e-01  -3.4259497239510767e-01  -3.4245229418487882e-01  -3.4223333936274591e-01  -3.4190187953727252e-01  -3.4140724030667202e-01  -3.4068005328684603e-01  -3.3962748697526063e-01  -3.3812820087835366e-01  -3.3602736478458733e-01  -3.3313212010741589e-01  -3.2920777422592451e-01  -3.2397474811450777e-01  -3.1710577560320052e-01  -3.0822198756372166e-01  -3.4283958834715633e-01  -3.4283958842836948e-01  -3.4283959023388394e-01  -3.4283959366233718e-01  -3.4283959852927309e-01  -3.4283960454315771e-01  -3.4283961126034507e-01  -3.4283961800396073e-01  -3.4283962371994697e-01  -3.4283962672357937e-01  -3.4283962425616277e-01  -3.4283961171514138e-01  -3.4283958132665004e-01  -3.4283951987398675e-01  -3.4283940484159725e-01  -3.4283919792497969e-01  -3.4283883420660027e-01  -3.4283820428030404e-01  -3.4283712504184904e-01  -3.4283529250369399e-01  -3.4283220651367313e-01  -3.4282705226112775e-01  -3.4281851649613720e-01  -3.4280450705211274e-01  -3.4278173230831149e-01  -3.4274508283484550e-01  -3.4268674158191947e-01  -3.4259493378272382e-01  -3.4245221707413398e-01  -3.4223321192743461e-01  -3.4190168959335182e-01  -3.4140697684887034e-01  -3.4067970871517778e-01  -3.3962705994176107e-01  -3.3812769948552862e-01  -3.3602680964360848e-01  -3.3313154660139349e-01  -3.2920723334872848e-01  -3.2397430560176699e-01  -3.1710550980685631e-01  -3.0822198756372166e-01  -3.4283953889261315e-01  -3.4283953860844901e-01  -3.4283954046452192e-01  -3.4283954436196817e-01  -3.4283955011819106e-01  -3.4283955744289946e-01  -3.4283956589318354e-01  -3.4283957479243282e-01  -3.4283958308625390e-01  -3.4283958908864803e-01  -3.4283959003809106e-01  -3.4283958132665004e-01  -3.4283955517102560e-01  -3.4283949833880761e-01  -3.4283938828927435e-01  -3.4283918667877894e-01  -3.4283882853033243e-01  -3.4283820434924839e-01  -3.4283713090173468e-01  -3.4283530401375206e-01  -3.4283222326904317e-01  -3.4282707348952762e-01  -3.4281854092416963e-01  -3.4280453273862577e-01  -3.4278175644690673e-01  -3.4274510153624305e-01  -3.4268674966080587e-01  -3.4259492459384056e-01  -3.4245218246827003e-01  -3.4223314242661257e-01  -3.4190157490873607e-01  -3.4140680687286479e-01  -3.4067947509518831e-01  -3.3962675827247779e-01  -3.3812733203454731e-01  -3.3602638836902771e-01  -3.3313109607928193e-01  -3.2920679318484158e-01  -3.2397393205063207e-01  -3.1710527673274974e-01  -3.0822198756372166e-01  -3.4283945850264580e-01  -3.4283945748160660e-01  -3.4283945909236474e-01  -3.4283946323853531e-01  -3.4283946973845003e-01  -3.4283947830138911e-01  -3.4283948848298673e-01  -3.4283949960447296e-01  -3.4283951060879037e-01  -3.4283951980676880e-01  -3.4283952443293120e-01  -3.4283951987398681e-01  -3.4283949833880761e-01  -3.4283944658306009e-01  -3.4283934204765748e-01  -3.4283914636084911e-01  -3.4283879450322985e-01  -3.4283817691708718e-01  -3.4283711027638009e-01  -3.4283529027393145e-01  -3.4283221630389404e-01  -3.4282707292185677e-01  -3.4281854600815098e-01  -3.4280454222689549e-01  -3.4278176842385882e-01  -3.4274511321903905e-01  -3.4268675717885694e-01  -3.4259492277314885e-01  -3.4245216467042683e-01  -3.4223310052320299e-01  -3.4190149950682064e-01  -3.4140668793739326e-01  -3.4067930312516409e-01  -3.3962652616124195e-01  -3.3812703766549440e-01  -3.3602603786552332e-01  -3.3313070746793183e-01  -3.2920640010594920e-01  -3.2397358714957503e-01  -3.1710505459081639e-01  -3.0822198756372166e-01  -3.4283932609217826e-01  -3.4283932369996545e-01  -3.4283932453849475e-01  -3.4283932851334670e-01  -3.4283933544147766e-01  -3.4283934502797819e-01  -3.4283935682223443e-01  -3.4283937013799387e-01  -3.4283938391020763e-01  -3.4283939644170913e-01  -3.4283940495920995e-01  -3.4283940484159725e-01  -3.4283938828927435e-01  -3.4283934204765748e-01  -3.4283924354392081e-01  -3.4283905438668294e-01  -3.4283870952771439e-01  -3.4283809936675719e-01  -3.4283704051524821e-01  -3.4283522857479620e-01  -3.4283216280746620e-01  -3.4282702757895445e-01  -3.4281850849876361e-01  -3.4280451184863525e-01  -3.4278174394192984e-01  -3.4274509267168113e-01  -3.4268673763833313e-01  -3.4259490007553611e-01  -3.4245213315076622e-01  -3.4223305282799982e-01  -3.4190142660232647e-01  -3.4140657948246372e-01  -3.4067914841636471e-01  -3.3962631586188052e-01  -3.3812676647358664e-01  -3.3602570814260718e-01  -3.3313033365283534e-01  -3.2920601352988560e-01  -3.2397324075333400e-01  -3.1710482715708666e-01  -3.0822198756372166e-01  -3.4283910566059850e-01  -3.4283910083240565e-01  -3.4283909999498746e-01  -3.4283910305429527e-01  -3.4283910982103727e-01  -3.4283911998857036e-01  -3.4283913309060082e-01  -3.4283914842295143e-01  -3.4283916490201599e-01  -3.4283918081275461e-01  -3.4283919336557089e-01  -3.4283919792497969e-01  -3.4283918667877894e-01  -3.4283914636084911e-01  -3.4283905438668294e-01  -3.4283887235132365e-01  -3.4283853518869972e-01  -3.4283793327322348e-01  -3.4283688317901095e-01  -3.4283508045182737e-01  -3.4283202426963805e-01  -3.4282689887114520e-01  -3.4281838967417566e-01  -3.4280440267260504e-01  -3.4278164375228753e-01  -3.4274500018328091e-01  -3.4268665068322879e-01  -3.4259481528212915e-01  -3.4245204558961817e-01  -3.4223295569284945e-01  -3.4190131105294380e-01  -3.4140643484496441e-01  -3.4067896299920836e-01  -3.3962607867253075e-01  -3.3812647007533492e-01  -3.3602535274450585e-01  -3.3312993227937676e-01  -3.2920559782585862e-01  -3.2397286676316717e-01  -3.1710458045108958e-01  -3.0822198756372166e-01  -3.4283873595311826e-01  -3.4283872692711648e-01  -3.4283872290272965e-01  -3.4283872378249086e-01  -3.4283872936129361e-01  -3.4283873930650538e-01  -3.4283875311860712e-01  -3.4283877005619995e-01  -3.4283878899757925e-01  -3.4283880819138401e-01  -3.4283882481543898e-01  -3.4283883420660027e-01  -3.4283882853033243e-01  -3.4283879450322985e-01  -3.4283870952771439e-01  -3.4283853518869972e-01  -3.4283820641125384e-01  -3.4283761356002301e-01  -3.4283657319542288e-01  -3.4283478084096125e-01  -3.4283173563626651e-01  -3.4282662175313827e-01  -3.4281812449354310e-01  -3.4280414965453287e-01  -3.4278140279670949e-01  -3.4274477067109838e-01  -3.4268643120121406e-01  -3.4259460326140040e-01  -3.4245183687830527e-01  -3.4223274412999827e-01  -3.4190108818031589e-01  -3.4140618998035688e-01  -3.4067868397967532e-01  -3.3962575362245329e-01  -3.3812609051524845e-01  -3.3602491819002339e-01  -3.3312945617740941e-01  -3.2920511429490901e-01  -3.2397243728701491e-01  -3.1710429963646747e-01  -3.0822198756372166e-01  -3.4283811330942687e-01  -3.4283809720962577e-01  -3.4283808752098710e-01  -3.4283808413459854e-01  -3.4283808681158295e-01  -3.4283809516736952e-01  -3.4283810863773534e-01  -3.4283812640972045e-01  -3.4283814728888123e-01  -3.4283816945480466e-01  -3.4283819002363602e-01  -3.4283820428030404e-01  -3.4283820434924839e-01  -3.4283817691708718e-01  -3.4283809936675724e-01  -3.4283793327322348e-01  -3.4283761356002301e-01  -3.4283703059747744e-01  -3.4283600095736644e-01  -3.4283422017775489e-01  -3.4283118741118229e-01  -3.4282608683119414e-01  -3.4281760371259723e-01  -3.4280364376566103e-01  -3.4278091235547498e-01  -3.4274429585688626e-01  -3.4268597154163472e-01  -3.4259415724831138e-01  -3.4245140148864561e-01  -3.4223231431614665e-01  -3.4190065647549728e-01  -3.4140574646966199e-01  -3.4067821699478129e-01  -3.3962525158529239e-01  -3.3812554532322436e-01  -3.3602433034628265e-01  -3.3312884150516986e-01  -3.2920451159416281e-01  -3.2397191585951679e-01  -3.1710396548345887e-01  -3.0822198756372166e-01  -3.4283706351087384e-01  -3.4283703570520802e-01  -3.4283701635925384e-01  -3.4283700533673500e-01  -3.4283700233235809e-01  -3.4283700686364499e-01  -3.4283701824666957e-01  -3.4283703553745748e-01  -3.4283705740922993e-01  -3.4283708191641382e-01  -3.4283710606358170e-01  -3.4283712504184904e-01  -3.4283713090173468e-01  -3.4283711027638014e-01  -3.4283704051524821e-01  -3.4283688317901095e-01  -3.4283657319542288e-01  -3.4283600095736644e-01  -3.4283498307789129e-01  -3.4283321515545190e-01  -3.4283019642125401e-01  -3.4282511114121922e-01  -3.4281664468393097e-01  -3.4280270282904635e-01  -3.4277999094034678e-01  -3.4274339524711389e-01  -3.4268509262759644e-01  -3.4259330015245693e-01  -3.4245056506798405e-01  -3.4223149560039834e-01  -3.4189985019085933e-01  -3.4140494492164786e-01  -3.4067741071607310e-01  -3.3962443124614350e-01  -3.3812470537972422e-01  -3.3602347469135618e-01  -3.3312799095471252e-01  -3.2920371244454849e-01  -3.2397124818120449e-01  -3.1710354958520537e-01  -3.0822198756372166e-01  -3.4283529609666696e-01  -3.4283524922781766e-01  -3.4283521389055654e-01  -3.4283518989109063e-01  -3.4283517679984238e-01  -3.4283517395677943e-01  -3.4283518046423356e-01  -3.4283519514655325e-01  -3.4283521644451442e-01  -3.4283524219371853e-01  -3.4283526920421314e-01  -3.4283529250369399e-01  -3.4283530401375206e-01  -3.4283529027393150e-01  -3.4283522857479620e-01  -3.4283508045182737e-01  -3.4283478084096120e-01  -3.4283