<?xml version="1.0"?>
<VTKFile type="UnstructuredGrid"  version="0.1"  >
<UnstructuredGrid>
<Piece  NumberOfPoints="1681" NumberOfCells="3200">
<Points>
<DataArray  type="Float64"  NumberOfComponents="3"  format="ascii">0 0 0  0.5 0 0  1 0 0  1.5 0 0  2 0 0  2.5 0 0  3 0 0  3.5 0 0  4 0 0  4.5 0 0  5 0 0  5.5 0 0  6 0 0  6.5 0 0  7 0 0  7.5 0 0  8 0 0  8.5 0 0  9 0 0  9.5 0 0  10 0 0  10.5 0 0  11 0 0  11.5 0 0  12 0 0  12.5 0 0  13 0 0  13.5 0 0  14 0 0  14.5 0 0  15 0 0  15.5 0 0  16 0 0  16.5 0 0  17 0 0  17.5 0 0  18 0 0  18.5 0 0  19 0 0  19.5 0 0  20 0 0  0 0.5 0  0.5 0.5 0  1 0.5 0  1.5 0.5 0  2 0.5 0  2.5 0.5 0  3 0.5 0  3.5 0.5 0  4 0.5 0  4.5 0.5 0  5 0.5 0  5.5 0.5 0  6 0.5 0  6.5 0.5 0  7 0.5 0  7.5 0.5 0  8 0.5 0  8.5 0.5 0  9 0.5 0  9.5 0.5 0  10 0.5 0  10.5 0.5 0  11 0.5 0  11.5 0.5 0  12 0.5 0  12.5 0.5 0  13 0.5 0  13.5 0.5 0  14 0.5 0  14.5 0.5 0  15 0.5 0  15.5 0.5 0  16 0.5 0  16.5 0.5 0  17 0.5 0  17.5 0.5 0  18 0.5 0  18.5 0.5 0  19 0.5 0  19.5 0.5 0  20 0.5 0  0 1 0  0.5 1 0  1 1 0  1.5 1 0  2 1 0  2.5 1 0  3 1 0  3.5 1 0  4 1 0  4.5 1 0  5 1 0  5.5 1 0  6 1 0  6.5 1 0  7 1 0  7.5 1 0  8 1 0  8.5 1 0  9 1 0  9.5 1 0  10 1 0  10.5 1 0  11 1 0  11.5 1 0  12 1 0  12.5 1 0  13 1 0  13.5 1 0  14 1 0  14.5 1 0  15 1 0  15.5 1 0  16 1 0  16.5 1 0  17 1 0  17.5 1 0  18 1 0  18.5 1 0  19 1 0  19.5 1 0  20 1 0  0 1.5 0  0.5 1.5 0  1 1.5 0  1.5 1.5 0  2 1.5 0  2.5 1.5 0  3 1.5 0  3.5 1.5 0  4 1.5 0  4.5 1.5 0  5 1.5 0  5.5 1.5 0  6 1.5 0  6.5 1.5 0  7 1.5 0  7.5 1.5 0  8 1.5 0  8.5 1.5 0  9 1.5 0  9.5 1.5 0  10 1.5 0  10.5 1.5 0  11 1.5 0  11.5 1.5 0  12 1.5 0  12.5 1.5 0  13 1.5 0  13.5 1.5 0  14 1.5 0  14.5 1.5 0  15 1.5 0  15.5 1.5 0  16 1.5 0  16.5 1.5 0  17 1.5 0  17.5 1.5 0  18 1.5 0  18.5 1.5 0  19 1.5 0  19.5 1.5 0  20 1.5 0  0 2 0  0.5 2 0  1 2 0  1.5 2 0  2 2 0  2.5 2 0  3 2 0  3.5 2 0  4 2 0  4.5 2 0  5 2 0  5.5 2 0  6 2 0  6.5 2 0  7 2 0  7.5 2 0  8 2 0  8.5 2 0  9 2 0  9.5 2 0  10 2 0  10.5 2 0  11 2 0  11.5 2 0  12 2 0  12.5 2 0  13 2 0  13.5 2 0  14 2 0  14.5 2 0  15 2 0  15.5 2 0  16 2 0  16.5 2 0  17 2 0  17.5 2 0  18 2 0  18.5 2 0  19 2 0  19.5 2 0  20 2 0  0 2.5 0  0.5 2.5 0  1 2.5 0  1.5 2.5 0  2 2.5 0  2.5 2.5 0  3 2.5 0  3.5 2.5 0  4 2.5 0  4.5 2.5 0  5 2.5 0  5.5 2.5 0  6 2.5 0  6.5 2.5 0  7 2.5 0  7.5 2.5 0  8 2.5 0  8.5 2.5 0  9 2.5 0  9.5 2.5 0  10 2.5 0  10.5 2.5 0  11 2.5 0  11.5 2.5 0  12 2.5 0  12.5 2.5 0  13 2.5 0  13.5 2.5 0  14 2.5 0  14.5 2.5 0  15 2.5 0  15.5 2.5 0  16 2.5 0  16.5 2.5 0  17 2.5 0  17.5 2.5 0  18 2.5 0  18.5 2.5 0  19 2.5 0  19.5 2.5 0  20 2.5 0  0 3 0  0.5 3 0  1 3 0  1.5 3 0  2 3 0  2.5 3 0  3 3 0  3.5 3 0  4 3 0  4.5 3 0  5 3 0  5.5 3 0  6 3 0  6.5 3 0  7 3 0  7.5 3 0  8 3 0  8.5 3 0  9 3 0  9.5 3 0  10 3 0  10.5 3 0  11 3 0  11.5 3 0  12 3 0  12.5 3 0  13 3 0  13.5 3 0  14 3 0  14.5 3 0  15 3 0  15.5 3 0  16 3 0  16.5 3 0  17 3 0  17.5 3 0  18 3 0  18.5 3 0  19 3 0  19.5 3 0  20 3 0  0 3.5 0  0.5 3.5 0  1 3.5 0  1.5 3.5 0  2 3.5 0  2.5 3.5 0  3 3.5 0  3.5 3.5 0  4 3.5 0  4.5 3.5 0  5 3.5 0  5.5 3.5 0  6 3.5 0  6.5 3.5 0  7 3.5 0  7.5 3.5 0  8 3.5 0  8.5 3.5 0  9 3.5 0  9.5 3.5 0  10 3.5 0  10.5 3.5 0  11 3.5 0  11.5 3.5 0  12 3.5 0  12.5 3.5 0  13 3.5 0  13.5 3.5 0  14 3.5 0  14.5 3.5 0  15 3.5 0  15.5 3.5 0  16 3.5 0  16.5 3.5 0  17 3.5 0  17.5 3.5 0  18 3.5 0  18.5 3.5 0  19 3.5 0  19.5 3.5 0  20 3.5 0  0 4 0  0.5 4 0  1 4 0  1.5 4 0  2 4 0  2.5 4 0  3 4 0  3.5 4 0  4 4 0  4.5 4 0  5 4 0  5.5 4 0  6 4 0  6.5 4 0  7 4 0  7.5 4 0  8 4 0  8.5 4 0  9 4 0  9.5 4 0  10 4 0  10.5 4 0  11 4 0  11.5 4 0  12 4 0  12.5 4 0  13 4 0  13.5 4 0  14 4 0  14.5 4 0  15 4 0  15.5 4 0  16 4 0  16.5 4 0  17 4 0  17.5 4 0  18 4 0  18.5 4 0  19 4 0  19.5 4 0  20 4 0  0 4.5 0  0.5 4.5 0  1 4.5 0  1.5 4.5 0  2 4.5 0  2.5 4.5 0  3 4.5 0  3.5 4.5 0  4 4.5 0  4.5 4.5 0  5 4.5 0  5.5 4.5 0  6 4.5 0  6.5 4.5 0  7 4.5 0  7.5 4.5 0  8 4.5 0  8.5 4.5 0  9 4.5 0  9.5 4.5 0  10 4.5 0  10.5 4.5 0  11 4.5 0  11.5 4.5 0  12 4.5 0  12.5 4.5 0  13 4.5 0  13.5 4.5 0  14 4.5 0  14.5 4.5 0  15 4.5 0  15.5 4.5 0  16 4.5 0  16.5 4.5 0  17 4.5 0  17.5 4.5 0  18 4.5 0  18.5 4.5 0  19 4.5 0  19.5 4.5 0  20 4.5 0  0 5 0  0.5 5 0  1 5 0  1.5 5 0  2 5 0  2.5 5 0  3 5 0  3.5 5 0  4 5 0  4.5 5 0  5 5 0  5.5 5 0  6 5 0  6.5 5 0  7 5 0  7.5 5 0  8 5 0  8.5 5 0  9 5 0  9.5 5 0  10 5 0  10.5 5 0  11 5 0  11.5 5 0  12 5 0  12.5 5 0  13 5 0  13.5 5 0  14 5 0  14.5 5 0  15 5 0  15.5 5 0  16 5 0  16.5 5 0  17 5 0  17.5 5 0  18 5 0  18.5 5 0  19 5 0  19.5 5 0  20 5 0  0 5.5 0  0.5 5.5 0  1 5.5 0  1.5 5.5 0  2 5.5 0  2.5 5.5 0  3 5.5 0  3.5 5.5 0  4 5.5 0  4.5 5.5 0  5 5.5 0  5.5 5.5 0  6 5.5 0  6.5 5.5 0  7 5.5 0  7.5 5.5 0  8 5.5 0  8.5 5.5 0  9 5.5 0  9.5 5.5 0  10 5.5 0  10.5 5.5 0  11 5.5 0  11.5 5.5 0  12 5.5 0  12.5 5.5 0  13 5.5 0  13.5 5.5 0  14 5.5 0  14.5 5.5 0  15 5.5 0  15.5 5.5 0  16 5.5 0  16.5 5.5 0  17 5.5 0  17.5 5.5 0  18 5.5 0  18.5 5.5 0  19 5.5 0  19.5 5.5 0  20 5.5 0  0 6 0  0.5 6 0  1 6 0  1.5 6 0  2 6 0  2.5 6 0  3 6 0  3.5 6 0  4 6 0  4.5 6 0  5 6 0  5.5 6 0  6 6 0  6.5 6 0  7 6 0  7.5 6 0  8 6 0  8.5 6 0  9 6 0  9.5 6 0  10 6 0  10.5 6 0  11 6 0  11.5 6 0  12 6 0  12.5 6 0  13 6 0  13.5 6 0  14 6 0  14.5 6 0  15 6 0  15.5 6 0  16 6 0  16.5 6 0  17 6 0  17.5 6 0  18 6 0  18.5 6 0  19 6 0  19.5 6 0  20 6 0  0 6.5 0  0.5 6.5 0  1 6.5 0  1.5 6.5 0  2 6.5 0  2.5 6.5 0  3 6.5 0  3.5 6.5 0  4 6.5 0  4.5 6.5 0  5 6.5 0  5.5 6.5 0  6 6.5 0  6.5 6.5 0  7 6.5 0  7.5 6.5 0  8 6.5 0  8.5 6.5 0  9 6.5 0  9.5 6.5 0  10 6.5 0  10.5 6.5 0  11 6.5 0  11.5 6.5 0  12 6.5 0  12.5 6.5 0  13 6.5 0  13.5 6.5 0  14 6.5 0  14.5 6.5 0  15 6.5 0  15.5 6.5 0  16 6.5 0  16.5 6.5 0  17 6.5 0  17.5 6.5 0  18 6.5 0  18.5 6.5 0  19 6.5 0  19.5 6.5 0  20 6.5 0  0 7 0  0.5 7 0  1 7 0  1.5 7 0  2 7 0  2.5 7 0  3 7 0  3.5 7 0  4 7 0  4.5 7 0  5 7 0  5.5 7 0  6 7 0  6.5 7 0  7 7 0  7.5 7 0  8 7 0  8.5 7 0  9 7 0  9.5 7 0  10 7 0  10.5 7 0  11 7 0  11.5 7 0  12 7 0  12.5 7 0  13 7 0  13.5 7 0  14 7 0  14.5 7 0  15 7 0  15.5 7 0  16 7 0  16.5 7 0  17 7 0  17.5 7 0  18 7 0  18.5 7 0  19 7 0  19.5 7 0  20 7 0  0 7.5 0  0.5 7.5 0  1 7.5 0  1.5 7.5 0  2 7.5 0  2.5 7.5 0  3 7.5 0  3.5 7.5 0  4 7.5 0  4.5 7.5 0  5 7.5 0  5.5 7.5 0  6 7.5 0  6.5 7.5 0  7 7.5 0  7.5 7.5 0  8 7.5 0  8.5 7.5 0  9 7.5 0  9.5 7.5 0  10 7.5 0  10.5 7.5 0  11 7.5 0  11.5 7.5 0  12 7.5 0  12.5 7.5 0  13 7.5 0  13.5 7.5 0  14 7.5 0  14.5 7.5 0  15 7.5 0  15.5 7.5 0  16 7.5 0  16.5 7.5 0  17 7.5 0  17.5 7.5 0  18 7.5 0  18.5 7.5 0  19 7.5 0  19.5 7.5 0  20 7.5 0  0 8 0  0.5 8 0  1 8 0  1.5 8 0  2 8 0  2.5 8 0  3 8 0  3.5 8 0  4 8 0  4.5 8 0  5 8 0  5.5 8 0  6 8 0  6.5 8 0  7 8 0  7.5 8 0  8 8 0  8.5 8 0  9 8 0  9.5 8 0  10 8 0  10.5 8 0  11 8 0  11.5 8 0  12 8 0  12.5 8 0  13 8 0  13.5 8 0  14 8 0  14.5 8 0  15 8 0  15.5 8 0  16 8 0  16.5 8 0  17 8 0  17.5 8 0  18 8 0  18.5 8 0  19 8 0  19.5 8 0  20 8 0  0 8.5 0  0.5 8.5 0  1 8.5 0  1.5 8.5 0  2 8.5 0  2.5 8.5 0  3 8.5 0  3.5 8.5 0  4 8.5 0  4.5 8.5 0  5 8.5 0  5.5 8.5 0  6 8.5 0  6.5 8.5 0  7 8.5 0  7.5 8.5 0  8 8.5 0  8.5 8.5 0  9 8.5 0  9.5 8.5 0  10 8.5 0  10.5 8.5 0  11 8.5 0  11.5 8.5 0  12 8.5 0  12.5 8.5 0  13 8.5 0  13.5 8.5 0  14 8.5 0  14.5 8.5 0  15 8.5 0  15.5 8.5 0  16 8.5 0  16.5 8.5 0  17 8.5 0  17.5 8.5 0  18 8.5 0  18.5 8.5 0  19 8.5 0  19.5 8.5 0  20 8.5 0  0 9 0  0.5 9 0  1 9 0  1.5 9 0  2 9 0  2.5 9 0  3 9 0  3.5 9 0  4 9 0  4.5 9 0  5 9 0  5.5 9 0  6 9 0  6.5 9 0  7 9 0  7.5 9 0  8 9 0  8.5 9 0  9 9 0  9.5 9 0  10 9 0  10.5 9 0  11 9 0  11.5 9 0  12 9 0  12.5 9 0  13 9 0  13.5 9 0  14 9 0  14.5 9 0  15 9 0  15.5 9 0  16 9 0  16.5 9 0  17 9 0  17.5 9 0  18 9 0  18.5 9 0  19 9 0  19.5 9 0  20 9 0  0 9.5 0  0.5 9.5 0  1 9.5 0  1.5 9.5 0  2 9.5 0  2.5 9.5 0  3 9.5 0  3.5 9.5 0  4 9.5 0  4.5 9.5 0  5 9.5 0  5.5 9.5 0  6 9.5 0  6.5 9.5 0  7 9.5 0  7.5 9.5 0  8 9.5 0  8.5 9.5 0  9 9.5 0  9.5 9.5 0  10 9.5 0  10.5 9.5 0  11 9.5 0  11.5 9.5 0  12 9.5 0  12.5 9.5 0  13 9.5 0  13.5 9.5 0  14 9.5 0  14.5 9.5 0  15 9.5 0  15.5 9.5 0  16 9.5 0  16.5 9.5 0  17 9.5 0  17.5 9.5 0  18 9.5 0  18.5 9.5 0  19 9.5 0  19.5 9.5 0  20 9.5 0  0 10 0  0.5 10 0  1 10 0  1.5 10 0  2 10 0  2.5 10 0  3 10 0  3.5 10 0  4 10 0  4.5 10 0  5 10 0  5.5 10 0  6 10 0  6.5 10 0  7 10 0  7.5 10 0  8 10 0  8.5 10 0  9 10 0  9.5 10 0  10 10 0  10.5 10 0  11 10 0  11.5 10 0  12 10 0  12.5 10 0  13 10 0  13.5 10 0  14 10 0  14.5 10 0  15 10 0  15.5 10 0  16 10 0  16.5 10 0  17 10 0  17.5 10 0  18 10 0  18.5 10 0  19 10 0  19.5 10 0  20 10 0  0 10.5 0  0.5 10.5 0  1 10.5 0  1.5 10.5 0  2 10.5 0  2.5 10.5 0  3 10.5 0  3.5 10.5 0  4 10.5 0  4.5 10.5 0  5 10.5 0  5.5 10.5 0  6 10.5 0  6.5 10.5 0  7 10.5 0  7.5 10.5 0  8 10.5 0  8.5 10.5 0  9 10.5 0  9.5 10.5 0  10 10.5 0  10.5 10.5 0  11 10.5 0  11.5 10.5 0  12 10.5 0  12.5 10.5 0  13 10.5 0  13.5 10.5 0  14 10.5 0  14.5 10.5 0  15 10.5 0  15.5 10.5 0  16 10.5 0  16.5 10.5 0  17 10.5 0  17.5 10.5 0  18 10.5 0  18.5 10.5 0  19 10.5 0  19.5 10.5 0  20 10.5 0  0 11 0  0.5 11 0  1 11 0  1.5 11 0  2 11 0  2.5 11 0  3 11 0  3.5 11 0  4 11 0  4.5 11 0  5 11 0  5.5 11 0  6 11 0  6.5 11 0  7 11 0  7.5 11 0  8 11 0  8.5 11 0  9 11 0  9.5 11 0  10 11 0  10.5 11 0  11 11 0  11.5 11 0  12 11 0  12.5 11 0  13 11 0  13.5 11 0  14 11 0  14.5 11 0  15 11 0  15.5 11 0  16 11 0  16.5 11 0  17 11 0  17.5 11 0  18 11 0  18.5 11 0  19 11 0  19.5 11 0  20 11 0  0 11.5 0  0.5 11.5 0  1 11.5 0  1.5 11.5 0  2 11.5 0  2.5 11.5 0  3 11.5 0  3.5 11.5 0  4 11.5 0  4.5 11.5 0  5 11.5 0  5.5 11.5 0  6 11.5 0  6.5 11.5 0  7 11.5 0  7.5 11.5 0  8 11.5 0  8.5 11.5 0  9 11.5 0  9.5 11.5 0  10 11.5 0  10.5 11.5 0  11 11.5 0  11.5 11.5 0  12 11.5 0  12.5 11.5 0  13 11.5 0  13.5 11.5 0  14 11.5 0  14.5 11.5 0  15 11.5 0  15.5 11.5 0  16 11.5 0  16.5 11.5 0  17 11.5 0  17.5 11.5 0  18 11.5 0  18.5 11.5 0  19 11.5 0  19.5 11.5 0  20 11.5 0  0 12 0  0.5 12 0  1 12 0  1.5 12 0  2 12 0  2.5 12 0  3 12 0  3.5 12 0  4 12 0  4.5 12 0  5 12 0  5.5 12 0  6 12 0  6.5 12 0  7 12 0  7.5 12 0  8 12 0  8.5 12 0  9 12 0  9.5 12 0  10 12 0  10.5 12 0  11 12 0  11.5 12 0  12 12 0  12.5 12 0  13 12 0  13.5 12 0  14 12 0  14.5 12 0  
[...]
<PointData  Vectors="f_5173-0"> 
<DataArray  type="Float64"  Name="f_5173-0"  NumberOfComponents="3" format="ascii">0.0000000000000000e+00 0.0000000000000000e+00 0.0000000000000000e+00  -6.5630614127263472e-07 0.0000000000000000e+00 0.0000000000000000e+00  -3.4068263872666937e-06 0.0000000000000000e+00 0.0000000000000000e+00  -1.0891419023651248e-05 0.0000000000000000e+00 0.0000000000000000e+00  -2.5450255967787509e-05 0.0000000000000000e+00 0.0000000000000000e+00  -4.9382620082752366e-05 0.0000000000000000e+00 0.0000000000000000e+00  -8.4950062146803970e-05 0.0000000000000000e+00 0.0000000000000000e+00  -1.3436324124068794e-04 0.0000000000000000e+00 0.0000000000000000e+00  -1.9976841798266461e-04 0.0000000000000000e+00 0.0000000000000000e+00  -2.8323364198256133e-04 0.0000000000000000e+00 0.0000000000000000e+00  -3.8673412529149518e-04 0.0000000000000000e+00 0.0000000000000000e+00  -5.1213646833634849e-04 0.0000000000000000e+00 0.0000000000000000e+00  -6.6118144915162946e-04 0.0000000000000000e+00 0.0000000000000000e+00  -8.3546502522010527e-04 0.0000000000000000e+00 0.0000000000000000e+00  -1.0364170353032022e-03 0.0000000000000000e+00 0.0000000000000000e+00  -1.2652767854849736e-03 0.0000000000000000e+00 0.0000000000000000e+00  -1.5230641795135802e-03 0.0000000000000000e+00 0.0000000000000000e+00  -1.8105441797548181e-03 0.0000000000000000e+00 0.0000000000000000e+00  -2.1281809662497559e-03 0.0000000000000000e+00 0.0000000000000000e+00  -2.4760759082772589e-03 0.0000000000000000e+00 0.0000000000000000e+00  -2.8538799607324742e-03 0.0000000000000000e+00 0.0000000000000000e+00  -3.2606657702764085e-03 0.0000000000000000e+00 0.0000000000000000e+00  -3.6947368572707311e-03 0.0000000000000000e+00 0.0000000000000000e+00  -4.1533397596291328e-03 0.0000000000000000e+00 0.0000000000000000e+00  -4.6322288442251589e-03 0.0000000000000000e+00 0.0000000000000000e+00  -5.1250114037320830e-03 0.0000000000000000e+00 0.0000000000000000e+00  -5.6221716031957542e-03 0.0000000000000000e+00 0.0000000000000000e+00  -6.1096352562600995e-03 0.0000000000000000e+00 0.0000000000000000e+00  -6.5666936858267168e-03 0.0000000000000000e+00 0.0000000000000000e+00  -6.9630558638006830e-03 0.0000000000000000e+00 0.0000000000000000e+00  -7.2547470494470157e-03 0.0000000000000000e+00 0.0000000000000000e+00  -7.3785237563780189e-03 0.0000000000000000e+00 0.0000000000000000e+00  -7.2444327449391653e-03 0.0000000000000000e+00 0.0000000000000000e+00  -6.7261047105044930e-03 0.0000000000000000e+00 0.0000000000000000e+00  -5.6483288431590810e-03 0.0000000000000000e+00 0.0000000000000000e+00  -3.7713689144774436e-03 0.0000000000000000e+00 0.0000000000000000e+00  -7.7128684286896921e-04 0.0000000000000000e+00 0.0000000000000000e+00  3.7848916650873188e-03 0.0000000000000000e+00 0.0000000000000000e+00  1.0471268165958589e-02 0.0000000000000000e+00 0.0000000000000000e+00  2.0046857021317914e-02 0.0000000000000000e+00 0.0000000000000000e+00  3.3526208615518555e-02 0.0000000000000000e+00 0.0000000000000000e+00  0.0000000000000000e+00 -6.5630614029685435e-07 0.0000000000000000e+00  8.1176057933653693e-07 8.1176057978439882e-07 0.0000000000000000e+00  -8.3845769011335857e-07 4.4854626246551872e-06 0.0000000000000000e+00  -7.1758417797509244e-06 1.0408289342908698e-05 0.0000000000000000e+00  -2.0562872159806433e-05 1.8624938246528806e-05 0.0000000000000000e+00  -4.3316839224087220e-05 2.9125091664890942e-05 0.0000000000000000e+00  -7.7705892074167874e-05 4.1869033716551966e-05 0.0000000000000000e+00  -1.2594354055849903e-04 5.6799665886189975e-05 0.0000000000000000e+00  -1.9017812475784532e-04 7.3845863259138376e-05 0.0000000000000000e+00  -2.7247996775183397e-04 9.2922742779725465e-05 0.0000000000000000e+00  -3.7482707318416727e-04 1.1393094697777562e-04 0.0000000000000000e+00  -4.9908947428986257e-04 1.3675561560641598e-04 0.0000000000000000e+00  -6.4701207738807466e-04 1.6126526214267604e-04 0.0000000000000000e+00  -8.2019568839557071e-04 1.8731064109789184e-04 0.0000000000000000e+00  -1.0200757204842348e-03 2.1472365873718584e-04 0.0000000000000000e+00  -1.2478977688645339e-03 2.4331637413637725e-04 0.0000000000000000e+00  -1.5046887115334048e-03 2.7288013990689740e-04 0.0000000000000000e+00  -1.7912211198976447e-03 3.0318493664281888e-04 0.0000000000000000e+00  -2.1079673438848924e-03 3.3397896029992266e-04 0.0000000000000000e+00  -2.4550373824980174e-03 3.6498852766333789e-04 0.0000000000000000e+00  -2.8320911476086385e-03 3.9591837205124109e-04 0.0000000000000000e+00  -3.2382104000545139e-03 4.2645241040692688e-04 0.0000000000000000e+00  -3.6717077160497843e-03 4.5625507546425298e-04 0.0000000000000000e+00  -4.1298383595571395e-03 4.8497332329033394e-04 0.0000000000000000e+00  -4.6083647539511691e-03 5.1223944725311741e-04 0.0000000000000000e+00  -5.1009011581083135e-03 5.3767485085695285e-04 0.0000000000000000e+00  -5.5979371008818869e-03 5.6089494583585206e-04 0.0000000000000000e+00  -6.0854015486290170e-03 5.8151533252270697e-04 0.0000000000000000e+00  -6.5425860590389772e-03 5.9915936115707456e-04 0.0000000000000000e+00  -6.9391961035157679e-03 6.1346703339718327e-04 0.0000000000000000e+00  -7.2312487116220191e-03 6.2410495006633756e-04 0.0000000000000000e+00  -7.3554860547159137e-03 6.3077663010521940e-04 0.0000000000000000e+00  -7.2219321391212531e-03 6.3323204744825991e-04 0.0000000000000000e+00  -6.7041821841290292e-03 6.3127476020468363e-04 0.0000000000000000e+00  -5.6269688833039963e-03 6.2476471083990895e-04 0.0000000000000000e+00  -3.7504631897789836e-03 6.1361472689483822e-04 0.0000000000000000e+00  -7.5057272647807412e-04 5.9777797659531099e-04 0.0000000000000000e+00  3.8059203539017013e-03 5.7721550501043989e-04 0.0000000000000000e+00  1.0493391011292142e-02 5.5178339074897389e-04 0.0000000000000000e+00  2.0070179894575053e-02 5.2072881559070926e-04 0.0000000000000000e+00  3.3537868418014399e-02 4.8039176759326129e-04 0.0000000000000000e+00  0.0000000000000000e+00 -3.4068263891654908e-06 0.0000000000000000e+00  4.4854626259396026e-06 -8.3845769076842410e-07 0.0000000000000000e+00  6.4016430124524634e-06 6.4016430099869512e-06 0.0000000000000000e+00  3.5972692839068978e-06 1.8271111295257354e-05 0.0000000000000000e+00  -6.2574412731501761e-06 3.4748216272432729e-05 0.0000000000000000e+00  -2.5475600758794259e-05 5.5782778681287177e-05 0.0000000000000000e+00  -5.6329385196280345e-05 8.1294672112091363e-05 0.0000000000000000e+00  -1.0103780118077384e-04 1.1117449455649540e-04 0.0000000000000000e+00  -1.6175531110140809e-04 1.4528435885497129e-04 0.0000000000000000e+00  -2.4055934466203136e-04 1.8345773065789624e-04 0.0000000000000000e+00  -3.3943642202388674e-04 2.2549833636410413e-04 0.0000000000000000e+00  -4.6026681468521141e-04 2.7117846373952151e-04 0.0000000000000000e+00  -6.0480759261999730e-04 3.2023693920954201e-04 0.0000000000000000e+00  -7.7467377049168914e-04 3.7237698320774569e-04 0.0000000000000000e+00  -9.7131706571242440e-04 4.2726409178789847e-04 0.0000000000000000e+00  -1.1960014590954651e-03 4.8452406890400784e-04 0.0000000000000000e+00  -1.4497742150258650e-03 5.4374132795025250e-04 0.0000000000000000e+00  -1.7334301393915016e-03 6.0445758461099078e-04 0.0000000000000000e+00  -2.0474654311506079e-03 6.6617107116499308e-04 0.0000000000000000e+00  -2.3920152271212553e-03 7.2833641308708917e-04 0.0000000000000000e+00  -2.7667654329100455e-03 7.9036532149982103e-04 0.0000000000000000e+00  -3.1708240992657372e-03 8.5162827062956596e-04 0.0000000000000000e+00  -3.6025296759059594e-03 9.1145734793526519e-04 0.0000000000000000e+00  -4.0591619854457601e-03 9.6915048699295920e-04 0.0000000000000000e+00  -4.5365055712992828e-03 1.0239773169562337e-03 0.0000000000000000e+00  -5.0281929832853558e-03 1.0751868821145146e-03 0.0000000000000000e+00  -5.5247265204589335e-03 1.1220174876216482e-03 0.0000000000000000e+00  -6.0120403931623575e-03 1.1637088916893359e-03 0.0000000000000000e+00  -6.4694215841945455e-03 1.1995169569226950e-03 0.0000000000000000e+00  -6.8665586712053509e-03 1.2287306539085544e-03 0.0000000000000000e+00  -7.1594368904834447e-03 1.2506909370797762e-03 0.0000000000000000e+00  -7.2847491878874470e-03 1.2648104561224938e-03 0.0000000000000000e+00  -7.1524504572738944e-03 1.2705923146080318e-03 0.0000000000000000e+00  -6.6360443405114322e-03 1.2676451077764397e-03 0.0000000000000000e+00  -5.5601463469124000e-03 1.2556900109132949e-03 0.0000000000000000e+00  -3.6847809788808860e-03 1.2345525812253409e-03 0.0000000000000000e+00  -6.8568018657182411e-04 1.2041229755554877e-03 0.0000000000000000e+00  3.8705518159437243e-03 1.1642403596137960e-03 0.0000000000000000e+00  1.0558319384848880e-02 1.1143748780187647e-03 0.0000000000000000e+00  2.0135225410152755e-02 1.0527722957553941e-03 0.0000000000000000e+00  3.3599736035950185e-02 9.7440862560756430e-04 0.0000000000000000e+00  0.0000000000000000e+00 -1.0891419024315876e-05 0.0000000000000000e+00  1.0408289342676594e-05 -7.1758417788983959e-06 0.0000000000000000e+00  1.8271111291309313e-05 3.5972692833476959e-06 0.0000000000000000e+00  2.1374143626878930e-05 2.1374143629488612e-05 0.0000000000000000e+00  1.7414939959382122e-05 4.6092334309296234e-05 0.0000000000000000e+00  4.0871350088404364e-06 7.7660648766200984e-05 0.0000000000000000e+00  -2.0882201997174098e-05 1.1595134284491302e-04 0.0000000000000000e+00  -5.9717053153397669e-05 1.6079871542250154e-04 0.0000000000000000e+00  -1.1457992846887752e-04 2.1199762587500822e-04 0.0000000000000000e+00  -1.8755907991372710e-04 2.6930141768914716e-04 0.0000000000000000e+00  -2.8065470810766839e-04 3.3241936834437272e-04 0.0000000000000000e+00  -3.9576382817247817e-04 4.0101377424693043e-04 0.0000000000000000e+00  -5.3466352116129511e-04 4.7469679237068148e-04 0.0000000000000000e+00  -6.9899222980171960e-04 5.5302718126266806e-04 0.0000000000000000e+00  -8.9022858536238092e-04 6.3550709793850843e-04 0.0000000000000000e+00  -1.1096669402256118e-03 7.2157911735052521e-04 0.0000000000000000e+00  -1.3583882491154623e-03 8.1062365157931015e-04 0.0000000000000000e+00  -1.6372240622838756e-03 9.0195695906255646e-04 0.0000000000000000e+00  -1.9467099695446484e-03 9.9482994929405398e-04 0.0000000000000000e+00  -2.2870225747029468e-03 1.0884280055472539e-03 0.0000000000000000e+00  -2.6578905692303061e-03 1.1818720665867347e-03 0.0000000000000000e+00  -3.0584651355060857e-03 1.2742212279835735e-03 0.0000000000000000e+00  -3.4871269765401232e-03 1.3644771441021866e-03 0.0000000000000000e+00  -3.9411957743759442e-03 1.4515905315211175e-03 0.0000000000000000e+00  -4.4164916878633260e-03 1.5344700896165139e-03 0.0000000000000000e+00  -4.9066764154721927e-03 1.6119941558706517e-03 0.0000000000000000e+00  -5.4022723233855506e-03 1.6830253858082064e-03 0.0000000000000000e+00  -5.8892216216343066e-03 1.7464286657655993e-03 0.0000000000000000e+00  -6.3468039550957488e-03 1.8010922929231961e-03 0.0000000000000000e+00  -6.7446818493786627e-03 1.8459521442551147e-03 0.0000000000000000e+00  -7.0387925742774835e-03 1.8800180457443836e-03 0.0000000000000000e+00  -7.1657565510294839e-03 1.9024007765780018e-03 0.0000000000000000e+00  -7.0354299712568893e-03 1.9123369947495062e-03 0.0000000000000000e+00  -6.5211916351748138e-03 1.9092076187894433e-03 0.0000000000000000e+00  -5.4475090437353067e-03 1.8925422304484402e-03 0.0000000000000000e+00  -3.5742450840164750e-03 1.8619962759944533e-03 0.0000000000000000e+00  -5.7698378173195813e-04 1.8172755661487021e-03 0.0000000000000000e+00  3.9777282039457854e-03 1.7579571494020809e-03 0.0000000000000000e+00  1.0664058496245252e-02 1.6831119499963810e-03 0.0000000000000000e+00  2.0238611598757082e-02 1.5906029713934130e-03 0.0000000000000000e+00  3.3697470918746433e-02 1.4761244750703759e-03 0.0000000000000000e+00  0.0000000000000000e+00 -2.5450255965864415e-05 0.0000000000000000e+00  1.8624938245259439e-05 -2.0562872158964367e-05 0.0000000000000000e+00  3.4748216270486525e-05 -6.2574412725924964e-06 0.0000000000000000e+00  4.6092334307393033e-05 1.7414939959125328e-05 0.0000000000000000e+00  5.0363470103642034e-05 5.0363470105887885e-05 0.0000000000000000e+00  4.5260001954180684e-05 9.2460513692649689e-05 0.0000000000000000e+00  2.8507405272768974e-05 1.4353384037710018e-04 0.0000000000000000e+00  -2.1243773234320100e-06 2.0336346005469581e-04 0.0000000000000000e+00  -4.8807878624622245e-05 2.7167881294334998e-04 0.0000000000000000e+00  -1.1364537653071735e-04 3.4815546505829505e-04 0.0000000000000000e+00  -1.9865531926950377e-04 4.3241127223990082e-04 0.0000000000000000e+00  -3.0575744595940740e-04 5.2400214944128408e-04 0.0000000000000000e+00  -4.3675627065214989e-04 6.2241760281513136e-04 0.0000000000000000e+00  -5.9332254763876883e-04 7.2707618877562621e-04 0.0000000000000000e+00  -7.7697217188532944e-04 8.3732108016757757e-04 0.0000000000000000e+00  -9.8904166074700157e-04 9.5241594166180384e-04 0.0000000000000000e+00  -1.2306588334121428e-03 1.0715413415593514e-03 0.0000000000000000e+00  -1.5027064250979240e-03 1.1937919531243666e-03 0.0000000000000000e+00  -1.8057749474683228e-03 1.3181748249480327e-03 0.0000000000000000e+00  -2.1400988453667328e-03 1.4436090258005531e-03 0.0000000000000000e+00  -2.5054664864819624e-03 1.5689269946832741e-03 0.0000000000000000e+00  -2.9010891790229752e-03 1.6928779497567821e-03 0.0000000000000000e+00  -3.3254064764473078e-03 1.8141337293471570e-03 0.0000000000000000e+00  -3.7757935333363993e-03 1.9312974500076705e-03 0.0000000000000000e+00  -4.2481200904538790e-03 2.0429153648981444e-03 0.0000000000000000e+00  -4.7360885981482569e-03 2.1474922787547731e-03 0.0000000000000000e+00  -5.2302499955702913e-03 2.2435108050371756e-03 0.0000000000000000e+00  -5.7165592047664837e-03 2.3294546082117894e-03 0.0000000000000000e+00  -6.1742888733869340e-03 2.4038355194967325e-03 0.0000000000000000e+00  -6.5730710978492528e-03 2.4652239940630527e-03 0.0000000000000000e+00  -6.8687861396909532e-03 2.5122817211393179e-03 0.0000000000000000e+00  -6.9979689079021764e-03 2.5437942099901874e-03 0.0000000000000000e+00  -6.8703617995970823e-03 2.5586997049976893e-03 0.0000000000000000e+00  -6.3592053512684212e-03 2.5561085636989088e-03 0.0000000000000000e+00  -5.2888143746784768e-03 2.5353037529535238e-03 0.0000000000000000e+00  -3.4189063513719990e-03 2.4957075026289660e-03 0.0000000000000000e+00  -4.2497182534364131e-04 2.4367903945876151e-03 0.0000000000000000e+00  4.1263960906762634e-03 2.3578880479310630e-03 0.0000000000000000e+00  1.0809024067067052e-02 2.2578869463836882e-03 0.0000000000000000e+00  2.0378696680149192e-02 2.1347828487584290e-03 0.0000000000000000e+00  3.3830378423661524e-02 1.9852940802957781e-03 0.0000000000000000e+00  0.0000000000000000e+00 -4.9382620079995748e-05 0.0000000000000000e+00  2.9125091664405802e-05 -4.3316839221911572e-05 0.0000000000000000e+00  5.5782778678790409e-05 -2.5475600758849378e-05 0.0000000000000000e+00  7.7660648765305433e-05 4.0871350089233508e-06 0.0000000000000000e+00  9.2460513692820966e-05 4.5260001955627104e-05 0.0000000000000000e+00  9.7883084300479586e-05 9.7883084300912955e-05 0.0000000000000000e+00  9.1651474671359341e-05 1.6174325663071361e-04 0.0000000000000000e+00  7.1528418084966018e-05 2.3656996130112638e-04 0.0000000000000000e+00  3.5329394195435361e-05 3.2203120392315676e-04 0.0000000000000000e+00  -1.9064892361376086e-05 4.1772906800962033e-04 0.0000000000000000e+00  -9.3695325533200185e-05 5.2319465355296017e-04 0.0000000000000000e+00  -1.9050989239914902e-04 6.3788254935563020e-04 0.0000000000000000e+00  -3.1134750202132047e-04 7.6116500901056883e-04 0.0000000000000000e+00  -4.5791968767654255e-04 8.9232602747076637e-04 0.0000000000000000e+00  -6.3178961440559748e-04 1.0305555393855116e-03 0.0000000000000000e+00  -8.3434750606742932e-04 1.1749439892327295e-03 0.0000000000000000e+00  -1.0667810752136003e-03 1.3244775562628365e-03 0.0000000000000000e+00  -1.3300386577080952e-03 1.4780343528418608e-03 0.0000000000000000e+00  -1.6247813269297713e-03 1.6343819511996866e-03 0.0000000000000000e+00  -1.9513179992389307e-03 1.7921766288102575e-03 0.0000000000000000e+00  -2.3095140280564373e-03 1.9499647549697855e-03 0.0000000000000000e+00  -2.6986584420949223e-03 2.1061867676311860e-03 0.0000000000000000e+00  -3.1172670497875208e-03 2.2591842069963372e-03 0.0000000000000000e+00  -3.5627871440083933e-03 2.4072102742494698e-03 0.0000000000000000e+00  -4.0311533705645148e-03 2.5484443619527121e-03 0.0000000000000000e+00  -4.5161222840491930e-03 2.6810109425051995e-03 0.0000000000000000e+00  -5.0082841727724032e-03 2.8030030823439295e-03 0.0000000000000000e+00  -5.4936143536644284e-03 2.9125106424531173e-03 0.0000000000000000e+00  -5.9513827251582510e-03 3.0076528900833295e-03 0.0000000000000000e+00  -6.3511917164013887e-03 3.0866147284203619e-03 0.0000000000000000e+00  -6.6488622481494421e-03 3.1476849817083292e-03 0.0000000000000000e+00  -6.7808393339925640e-03 3.1892940630090950e-03 0.0000000000000000e+00  -6.6567471238697280e-03 3.2100467812411480e-03 0.0000000000000000e+00  -6.1496866150961100e-03 3.2087438570441865e-03 0.0000000000000000e+00  -5.0838264442328099e-03 3.1843827470537317e-03 0.0000000000000000e+00  -3.2187577902425507e-03 3.1361246187790980e-03 0.0000000000000000e+00  -2.2990886449473469e-04 3.0632105363669593e-03 0.0000000000000000e+00  4.3160603458305604e-03 2.9648091756612795e-03 0.0000000000000000e+00  1.0992709058477166e-02 2.8397886897318903e-03 0.0000000000000000e+00  2.0555360976449940e-02 2.6864399574512646e-03 0.0000000000000000e+00  3.3998694375343752e-02 2.5022327894788326e-03 0.0000000000000000e+00  0.0000000000000000e+00 -8.4950062147330906e-05 0.0000000000000000e+00  4.1869033717687918e-05 -7.7705892071819723e-05 0.0000000000000000e+00  8.1294672110706620e-05 -5.6329385195975820e-05 0.0000000000000000e+00  1.1595134284292504e-04 -2.0882201995199248e-05 0.0000000000000000e+00  1.4353384037447866e-04 2.8507405273002803e-05 0.0000000000000000e+00  1.6174325662801373e-04 9.1651474672877183e-05 0.0000000000000000e+00  1.6830003846257400e-04 1.6830003846518866e-04 0.0000000000000000e+00  1.6095916226024429e-04 2.5813646543811194e-04 0.0000000000000000e+00  1.3752275203391071e-04 3.6077239778779737e-04 0.0000000000000000e+00  9.5852076868687823e-05 4.7574207520630790e-04 0.0000000000000000e+00  3.3880194106938118e-05 6.0249599873442110e-04 0.0000000000000000e+00  -5.0374094397222673e-05 7.4039404021255042e-04 0.0000000000000000e+00  -1.5879051439103396e-04 8.8869817550395007e-04 0.0000000000000000e+00  -2.9312935344545963e-04 1.0465650620229239e-03 0.0000000000000000e+00  -4.5501064018863262e-04 1.2130387178481328e-03 0.0000000000000000e+00  -6.4588954407414313e-04 1.3870435993872450e-03 0.0000000000000000e+00  -8.6702653817427220e-04 1.5673784176258216e-03 0.0000000000000000e+00  -1.1194499834741756e-03 1.7527110789585807e-03 0.0000000000000000e+00  -1.4039073638374329e-03 1.9415751835212311e-03 0.0000000000000000e+00  -1.7207991365792580e-03 2.1323685589934504e-03 0.0000000000000000e+00  -2.0700856497028416e-03 2.3233543483008384e-03 0.0000000000000000e+00  -2.4511522384287250e-03 2.5126652006768344e-03 0.0000000000000000e+00  -2.8626096879932209e-03 2.6983111321399701e-03 0.0000000000000000e+00  -3.3019957764173625e-03 2.8781916145380389e-03 0.0000000000000000e+00  -3.7653274661595196e-03 3.0501124117033045e-03 0.0000000000000000e+00  -4.2464313155520083e-03 3.2118075897544477e-03 0.0000000000000000e+00  -4.7359508032598797e-03 3.3609669653809570e-03 0.0000000000000000e+00  -5.2198929712490311e-03 3.4952689910238035e-03 0.0000000000000000e+00  -5.6775335064236142e-03 3.6124186722263866e-03 0.0000000000000000e+00  -6.0784508957639231e-03 3.7101895235044156e-03 0.0000000000000000e+00  -6.3784099690867698e-03 3.7864677401885445e-03 0.0000000000000000e+00  -6.5137673970288926e-03 3.8392956358438836e-03 0.0000000000000000e+00  -6.3940301690862036e-03 3.8669099144029730e-03 0.0000000000000000e+00  -5.8921618292516525e-03 3.8677684990059660e-03 0.0000000000000000e+00  -4.8321887469128201e-03 3.8405575323553656e-03 0.0000