<?xml version="1.0"?>
<VTKFile type="UnstructuredGrid"  version="0.1"  >
<UnstructuredGrid>
<Piece  NumberOfPoints="1681" NumberOfCells="3200">
<Points>
<DataArray  type="Float64"  NumberOfComponents="3"  format="ascii">0 0 0  0.5 0 0  1 0 0  1.5 0 0  2 0 0  2.5 0 0  3 0 0  3.5 0 0  4 0 0  4.5 0 0  5 0 0  5.5 0 0  6 0 0  6.5 0 0  7 0 0  7.5 0 0  8 0 0  8.5 0 0  9 0 0  9.5 0 0  10 0 0  10.5 0 0  11 0 0  11.5 0 0  12 0 0  12.5 0 0  13 0 0  13.5 0 0  14 0 0  14.5 0 0  15 0 0  15.5 0 0  16 0 0  16.5 0 0  17 0 0  17.5 0 0  18 0 0  18.5 0 0  19 0 0  19.5 0 0  20 0 0  0 0.5 0  0.5 0.5 0  1 0.5 0  1.5 0.5 0  2 0.5 0  2.5 0.5 0  3 0.5 0  3.5 0.5 0  4 0.5 0  4.5 0.5 0  5 0.5 0  5.5 0.5 0  6 0.5 0  6.5 0.5 0  7 0.5 0  7.5 0.5 0  8 0.5 0  8.5 0.5 0  9 0.5 0  9.5 0.5 0  10 0.5 0  10.5 0.5 0  11 0.5 0  11.5 0.5 0  12 0.5 0  12.5 0.5 0  13 0.5 0  13.5 0.5 0  14 0.5 0  14.5 0.5 0  15 0.5 0  15.5 0.5 0  16 0.5 0  16.5 0.5 0  17 0.5 0  17.5 0.5 0  18 0.5 0  18.5 0.5 0  19 0.5 0  19.5 0.5 0  20 0.5 0  0 1 0  0.5 1 0  1 1 0  1.5 1 0  2 1 0  2.5 1 0  3 1 0  3.5 1 0  4 1 0  4.5 1 0  5 1 0  5.5 1 0  6 1 0  6.5 1 0  7 1 0  7.5 1 0  8 1 0  8.5 1 0  9 1 0  9.5 1 0  10 1 0  10.5 1 0  11 1 0  11.5 1 0  12 1 0  12.5 1 0  13 1 0  13.5 1 0  14 1 0  14.5 1 0  15 1 0  15.5 1 0  16 1 0  16.5 1 0  17 1 0  17.5 1 0  18 1 0  18.5 1 0  19 1 0  19.5 1 0  20 1 0  0 1.5 0  0.5 1.5 0  1 1.5 0  1.5 1.5 0  2 1.5 0  2.5 1.5 0  3 1.5 0  3.5 1.5 0  4 1.5 0  4.5 1.5 0  5 1.5 0  5.5 1.5 0  6 1.5 0  6.5 1.5 0  7 1.5 0  7.5 1.5 0  8 1.5 0  8.5 1.5 0  9 1.5 0  9.5 1.5 0  10 1.5 0  10.5 1.5 0  11 1.5 0  11.5 1.5 0  12 1.5 0  12.5 1.5 0  13 1.5 0  13.5 1.5 0  14 1.5 0  14.5 1.5 0  15 1.5 0  15.5 1.5 0  16 1.5 0  16.5 1.5 0  17 1.5 0  17.5 1.5 0  18 1.5 0  18.5 1.5 0  19 1.5 0  19.5 1.5 0  20 1.5 0  0 2 0  0.5 2 0  1 2 0  1.5 2 0  2 2 0  2.5 2 0  3 2 0  3.5 2 0  4 2 0  4.5 2 0  5 2 0  5.5 2 0  6 2 0  6.5 2 0  7 2 0  7.5 2 0  8 2 0  8.5 2 0  9 2 0  9.5 2 0  10 2 0  10.5 2 0  11 2 0  11.5 2 0  12 2 0  12.5 2 0  13 2 0  13.5 2 0  14 2 0  14.5 2 0  15 2 0  15.5 2 0  16 2 0  16.5 2 0  17 2 0  17.5 2 0  18 2 0  18.5 2 0  19 2 0  19.5 2 0  20 2 0  0 2.5 0  0.5 2.5 0  1 2.5 0  1.5 2.5 0  2 2.5 0  2.5 2.5 0  3 2.5 0  3.5 2.5 0  4 2.5 0  4.5 2.5 0  5 2.5 0  5.5 2.5 0  6 2.5 0  6.5 2.5 0  7 2.5 0  7.5 2.5 0  8 2.5 0  8.5 2.5 0  9 2.5 0  9.5 2.5 0  10 2.5 0  10.5 2.5 0  11 2.5 0  11.5 2.5 0  12 2.5 0  12.5 2.5 0  13 2.5 0  13.5 2.5 0  14 2.5 0  14.5 2.5 0  15 2.5 0  15.5 2.5 0  16 2.5 0  16.5 2.5 0  17 2.5 0  17.5 2.5 0  18 2.5 0  18.5 2.5 0  19 2.5 0  19.5 2.5 0  20 2.5 0  0 3 0  0.5 3 0  1 3 0  1.5 3 0  2 3 0  2.5 3 0  3 3 0  3.5 3 0  4 3 0  4.5 3 0  5 3 0  5.5 3 0  6 3 0  6.5 3 0  7 3 0  7.5 3 0  8 3 0  8.5 3 0  9 3 0  9.5 3 0  10 3 0  10.5 3 0  11 3 0  11.5 3 0  12 3 0  12.5 3 0  13 3 0  13.5 3 0  14 3 0  14.5 3 0  15 3 0  15.5 3 0  16 3 0  16.5 3 0  17 3 0  17.5 3 0  18 3 0  18.5 3 0  19 3 0  19.5 3 0  20 3 0  0 3.5 0  0.5 3.5 0  1 3.5 0  1.5 3.5 0  2 3.5 0  2.5 3.5 0  3 3.5 0  3.5 3.5 0  4 3.5 0  4.5 3.5 0  5 3.5 0  5.5 3.5 0  6 3.5 0  6.5 3.5 0  7 3.5 0  7.5 3.5 0  8 3.5 0  8.5 3.5 0  9 3.5 0  9.5 3.5 0  10 3.5 0  10.5 3.5 0  11 3.5 0  11.5 3.5 0  12 3.5 0  12.5 3.5 0  13 3.5 0  13.5 3.5 0  14 3.5 0  14.5 3.5 0  15 3.5 0  15.5 3.5 0  16 3.5 0  16.5 3.5 0  17 3.5 0  17.5 3.5 0  18 3.5 0  18.5 3.5 0  19 3.5 0  19.5 3.5 0  20 3.5 0  0 4 0  0.5 4 0  1 4 0  1.5 4 0  2 4 0  2.5 4 0  3 4 0  3.5 4 0  4 4 0  4.5 4 0  5 4 0  5.5 4 0  6 4 0  6.5 4 0  7 4 0  7.5 4 0  8 4 0  8.5 4 0  9 4 0  9.5 4 0  10 4 0  10.5 4 0  11 4 0  11.5 4 0  12 4 0  12.5 4 0  13 4 0  13.5 4 0  14 4 0  14.5 4 0  15 4 0  15.5 4 0  16 4 0  16.5 4 0  17 4 0  17.5 4 0  18 4 0  18.5 4 0  19 4 0  19.5 4 0  20 4 0  0 4.5 0  0.5 4.5 0  1 4.5 0  1.5 4.5 0  2 4.5 0  2.5 4.5 0  3 4.5 0  3.5 4.5 0  4 4.5 0  4.5 4.5 0  5 4.5 0  5.5 4.5 0  6 4.5 0  6.5 4.5 0  7 4.5 0  7.5 4.5 0  8 4.5 0  8.5 4.5 0  9 4.5 0  9.5 4.5 0  10 4.5 0  10.5 4.5 0  11 4.5 0  11.5 4.5 0  12 4.5 0  12.5 4.5 0  13 4.5 0  13.5 4.5 0  14 4.5 0  14.5 4.5 0  15 4.5 0  15.5 4.5 0  16 4.5 0  16.5 4.5 0  17 4.5 0  17.5 4.5 0  18 4.5 0  18.5 4.5 0  19 4.5 0  19.5 4.5 0  20 4.5 0  0 5 0  0.5 5 0  1 5 0  1.5 5 0  2 5 0  2.5 5 0  3 5 0  3.5 5 0  4 5 0  4.5 5 0  5 5 0  5.5 5 0  6 5 0  6.5 5 0  7 5 0  7.5 5 0  8 5 0  8.5 5 0  9 5 0  9.5 5 0  10 5 0  10.5 5 0  11 5 0  11.5 5 0  12 5 0  12.5 5 0  13 5 0  13.5 5 0  14 5 0  14.5 5 0  15 5 0  15.5 5 0  16 5 0  16.5 5 0  17 5 0  17.5 5 0  18 5 0  18.5 5 0  19 5 0  19.5 5 0  20 5 0  0 5.5 0  0.5 5.5 0  1 5.5 0  1.5 5.5 0  2 5.5 0  2.5 5.5 0  3 5.5 0  3.5 5.5 0  4 5.5 0  4.5 5.5 0  5 5.5 0  5.5 5.5 0  6 5.5 0  6.5 5.5 0  7 5.5 0  7.5 5.5 0  8 5.5 0  8.5 5.5 0  9 5.5 0  9.5 5.5 0  10 5.5 0  10.5 5.5 0  11 5.5 0  11.5 5.5 0  12 5.5 0  12.5 5.5 0  13 5.5 0  13.5 5.5 0  14 5.5 0  14.5 5.5 0  15 5.5 0  15.5 5.5 0  16 5.5 0  16.5 5.5 0  17 5.5 0  17.5 5.5 0  18 5.5 0  18.5 5.5 0  19 5.5 0  19.5 5.5 0  20 5.5 0  0 6 0  0.5 6 0  1 6 0  1.5 6 0  2 6 0  2.5 6 0  3 6 0  3.5 6 0  4 6 0  4.5 6 0  5 6 0  5.5 6 0  6 6 0  6.5 6 0  7 6 0  7.5 6 0  8 6 0  8.5 6 0  9 6 0  9.5 6 0  10 6 0  10.5 6 0  11 6 0  11.5 6 0  12 6 0  12.5 6 0  13 6 0  13.5 6 0  14 6 0  14.5 6 0  15 6 0  15.5 6 0  16 6 0  16.5 6 0  17 6 0  17.5 6 0  18 6 0  18.5 6 0  19 6 0  19.5 6 0  20 6 0  0 6.5 0  0.5 6.5 0  1 6.5 0  1.5 6.5 0  2 6.5 0  2.5 6.5 0  3 6.5 0  3.5 6.5 0  4 6.5 0  4.5 6.5 0  5 6.5 0  5.5 6.5 0  6 6.5 0  6.5 6.5 0  7 6.5 0  7.5 6.5 0  8 6.5 0  8.5 6.5 0  9 6.5 0  9.5 6.5 0  10 6.5 0  10.5 6.5 0  11 6.5 0  11.5 6.5 0  12 6.5 0  12.5 6.5 0  13 6.5 0  13.5 6.5 0  14 6.5 0  14.5 6.5 0  15 6.5 0  15.5 6.5 0  16 6.5 0  16.5 6.5 0  17 6.5 0  17.5 6.5 0  18 6.5 0  18.5 6.5 0  19 6.5 0  19.5 6.5 0  20 6.5 0  0 7 0  0.5 7 0  1 7 0  1.5 7 0  2 7 0  2.5 7 0  3 7 0  3.5 7 0  4 7 0  4.5 7 0  5 7 0  5.5 7 0  6 7 0  6.5 7 0  7 7 0  7.5 7 0  8 7 0  8.5 7 0  9 7 0  9.5 7 0  10 7 0  10.5 7 0  11 7 0  11.5 7 0  12 7 0  12.5 7 0  13 7 0  13.5 7 0  14 7 0  14.5 7 0  15 7 0  15.5 7 0  16 7 0  16.5 7 0  17 7 0  17.5 7 0  18 7 0  18.5 7 0  19 7 0  19.5 7 0  20 7 0  0 7.5 0  0.5 7.5 0  1 7.5 0  1.5 7.5 0  2 7.5 0  2.5 7.5 0  3 7.5 0  3.5 7.5 0  4 7.5 0  4.5 7.5 0  5 7.5 0  5.5 7.5 0  6 7.5 0  6.5 7.5 0  7 7.5 0  7.5 7.5 0  8 7.5 0  8.5 7.5 0  9 7.5 0  9.5 7.5 0  10 7.5 0  10.5 7.5 0  11 7.5 0  11.5 7.5 0  12 7.5 0  12.5 7.5 0  13 7.5 0  13.5 7.5 0  14 7.5 0  14.5 7.5 0  15 7.5 0  15.5 7.5 0  16 7.5 0  16.5 7.5 0  17 7.5 0  17.5 7.5 0  18 7.5 0  18.5 7.5 0  19 7.5 0  19.5 7.5 0  20 7.5 0  0 8 0  0.5 8 0  1 8 0  1.5 8 0  2 8 0  2.5 8 0  3 8 0  3.5 8 0  4 8 0  4.5 8 0  5 8 0  5.5 8 0  6 8 0  6.5 8 0  7 8 0  7.5 8 0  8 8 0  8.5 8 0  9 8 0  9.5 8 0  10 8 0  10.5 8 0  11 8 0  11.5 8 0  12 8 0  12.5 8 0  13 8 0  13.5 8 0  14 8 0  14.5 8 0  15 8 0  15.5 8 0  16 8 0  16.5 8 0  17 8 0  17.5 8 0  18 8 0  18.5 8 0  19 8 0  19.5 8 0  20 8 0  0 8.5 0  0.5 8.5 0  1 8.5 0  1.5 8.5 0  2 8.5 0  2.5 8.5 0  3 8.5 0  3.5 8.5 0  4 8.5 0  4.5 8.5 0  5 8.5 0  5.5 8.5 0  6 8.5 0  6.5 8.5 0  7 8.5 0  7.5 8.5 0  8 8.5 0  8.5 8.5 0  9 8.5 0  9.5 8.5 0  10 8.5 0  10.5 8.5 0  11 8.5 0  11.5 8.5 0  12 8.5 0  12.5 8.5 0  13 8.5 0  13.5 8.5 0  14 8.5 0  14.5 8.5 0  15 8.5 0  15.5 8.5 0  16 8.5 0  16.5 8.5 0  17 8.5 0  17.5 8.5 0  18 8.5 0  18.5 8.5 0  19 8.5 0  19.5 8.5 0  20 8.5 0  0 9 0  0.5 9 0  1 9 0  1.5 9 0  2 9 0  2.5 9 0  3 9 0  3.5 9 0  4 9 0  4.5 9 0  5 9 0  5.5 9 0  6 9 0  6.5 9 0  7 9 0  7.5 9 0  8 9 0  8.5 9 0  9 9 0  9.5 9 0  10 9 0  10.5 9 0  11 9 0  11.5 9 0  12 9 0  12.5 9 0  13 9 0  13.5 9 0  14 9 0  14.5 9 0  15 9 0  15.5 9 0  16 9 0  16.5 9 0  17 9 0  17.5 9 0  18 9 0  18.5 9 0  19 9 0  19.5 9 0  20 9 0  0 9.5 0  0.5 9.5 0  1 9.5 0  1.5 9.5 0  2 9.5 0  2.5 9.5 0  3 9.5 0  3.5 9.5 0  4 9.5 0  4.5 9.5 0  5 9.5 0  5.5 9.5 0  6 9.5 0  6.5 9.5 0  7 9.5 0  7.5 9.5 0  8 9.5 0  8.5 9.5 0  9 9.5 0  9.5 9.5 0  10 9.5 0  10.5 9.5 0  11 9.5 0  11.5 9.5 0  12 9.5 0  12.5 9.5 0  13 9.5 0  13.5 9.5 0  14 9.5 0  14.5 9.5 0  15 9.5 0  15.5 9.5 0  16 9.5 0  16.5 9.5 0  17 9.5 0  17.5 9.5 0  18 9.5 0  18.5 9.5 0  19 9.5 0  19.5 9.5 0  20 9.5 0  0 10 0  0.5 10 0  1 10 0  1.5 10 0  2 10 0  2.5 10 0  3 10 0  3.5 10 0  4 10 0  4.5 10 0  5 10 0  5.5 10 0  6 10 0  6.5 10 0  7 10 0  7.5 10 0  8 10 0  8.5 10 0  9 10 0  9.5 10 0  10 10 0  10.5 10 0  11 10 0  11.5 10 0  12 10 0  12.5 10 0  13 10 0  13.5 10 0  14 10 0  14.5 10 0  15 10 0  15.5 10 0  16 10 0  16.5 10 0  17 10 0  17.5 10 0  18 10 0  18.5 10 0  19 10 0  19.5 10 0  20 10 0  0 10.5 0  0.5 10.5 0  1 10.5 0  1.5 10.5 0  2 10.5 0  2.5 10.5 0  3 10.5 0  3.5 10.5 0  4 10.5 0  4.5 10.5 0  5 10.5 0  5.5 10.5 0  6 10.5 0  6.5 10.5 0  7 10.5 0  7.5 10.5 0  8 10.5 0  8.5 10.5 0  9 10.5 0  9.5 10.5 0  10 10.5 0  10.5 10.5 0  11 10.5 0  11.5 10.5 0  12 10.5 0  12.5 10.5 0  13 10.5 0  13.5 10.5 0  14 10.5 0  14.5 10.5 0  15 10.5 0  15.5 10.5 0  16 10.5 0  16.5 10.5 0  17 10.5 0  17.5 10.5 0  18 10.5 0  18.5 10.5 0  19 10.5 0  19.5 10.5 0  20 10.5 0  0 11 0  0.5 11 0  1 11 0  1.5 11 0  2 11 0  2.5 11 0  3 11 0  3.5 11 0  4 11 0  4.5 11 0  5 11 0  5.5 11 0  6 11 0  6.5 11 0  7 11 0  7.5 11 0  8 11 0  8.5 11 0  9 11 0  9.5 11 0  10 11 0  10.5 11 0  11 11 0  11.5 11 0  12 11 0  12.5 11 0  13 11 0  13.5 11 0  14 11 0  14.5 11 0  15 11 0  15.5 11 0  16 11 0  16.5 11 0  17 11 0  17.5 11 0  18 11 0  18.5 11 0  19 11 0  19.5 11 0  20 11 0  0 11.5 0  0.5 11.5 0  1 11.5 0  1.5 11.5 0  2 11.5 0  2.5 11.5 0  3 11.5 0  3.5 11.5 0  4 11.5 0  4.5 11.5 0  5 11.5 0  5.5 11.5 0  6 11.5 0  6.5 11.5 0  7 11.5 0  7.5 11.5 0  8 11.5 0  8.5 11.5 0  9 11.5 0  9.5 11.5 0  10 11.5 0  10.5 11.5 0  11 11.5 0  11.5 11.5 0  12 11.5 0  12.5 11.5 0  13 11.5 0  13.5 11.5 0  14 11.5 0  14.5 11.5 0  15 11.5 0  15.5 11.5 0  16 11.5 0  16.5 11.5 0  17 11.5 0  17.5 11.5 0  18 11.5 0  18.5 11.5 0  19 11.5 0  19.5 11.5 0  20 11.5 0  0 12 0  0.5 12 0  1 12 0  1.5 12 0  2 12 0  2.5 12 0  3 12 0  3.5 12 0  4 12 0  4.5 12 0  5 12 0  5.5 12 0  6 12 0  6.5 12 0  7 12 0  7.5 12 0  8 12 0  8.5 12 0  9 12 0  9.5 12 0  10 12 0  10.5 12 0  11 12 0  11.5 12 0  12 12 0  12.5 12 0  13 12 0  13.5 12 0  14 12 0  14.5 12 0  
[...]
<PointData  Vectors="f_5173-0"> 
<DataArray  type="Float64"  Name="f_5173-0"  NumberOfComponents="3" format="ascii">0.0000000000000000e+00 0.0000000000000000e+00 0.0000000000000000e+00  -2.9185705460724306e-09 0.0000000000000000e+00 0.0000000000000000e+00  -1.9913276903351771e-08 0.0000000000000000e+00 0.0000000000000000e+00  -6.5838329783492426e-08 0.0000000000000000e+00 0.0000000000000000e+00  -1.5502265446718646e-07 0.0000000000000000e+00 0.0000000000000000e+00  -3.0160794886417121e-07 0.0000000000000000e+00 0.0000000000000000e+00  -5.1947814342293126e-07 0.0000000000000000e+00 0.0000000000000000e+00  -8.2218593426262241e-07 0.0000000000000000e+00 0.0000000000000000e+00  -1.2228787463274163e-06 0.0000000000000000e+00 0.0000000000000000e+00  -1.7342196954417298e-06 0.0000000000000000e+00 0.0000000000000000e+00  -2.3683025556889659e-06 0.0000000000000000e+00 0.0000000000000000e+00  -3.1365605036468309e-06 0.0000000000000000e+00 0.0000000000000000e+00  -4.0496685701277390e-06 0.0000000000000000e+00 0.0000000000000000e+00  -5.1174398597119102e-06 0.0000000000000000e+00 0.0000000000000000e+00  -6.3487158169239034e-06 0.0000000000000000e+00 0.0000000000000000e+00  -7.7512511056527903e-06 0.0000000000000000e+00 0.0000000000000000e+00  -9.3315939821440499e-06 0.0000000000000000e+00 0.0000000000000000e+00  -1.1094963426897846e-05 0.0000000000000000e+00 0.0000000000000000e+00  -1.3045124682686184e-05 0.0000000000000000e+00 0.0000000000000000e+00  -1.5184265269164423e-05 0.0000000000000000e+00 0.0000000000000000e+00  -1.7512873921144592e-05 0.0000000000000000e+00 0.0000000000000000e+00  -2.0029625284470561e-05 0.0000000000000000e+00 0.0000000000000000e+00  -2.2731273439451786e-05 0.0000000000000000e+00 0.0000000000000000e+00  -2.5612557468911759e-05 0.0000000000000000e+00 0.0000000000000000e+00  -2.8666122114486555e-05 0.0000000000000000e+00 0.0000000000000000e+00  -3.1882455973626157e-05 0.0000000000000000e+00 0.0000000000000000e+00  -3.5249848274476162e-05 0.0000000000000000e+00 0.0000000000000000e+00  -3.8754362337616828e-05 0.0000000000000000e+00 0.0000000000000000e+00  -4.2379817904766479e-05 0.0000000000000000e+00 0.0000000000000000e+00  -4.6107762074267248e-05 0.0000000000000000e+00 0.0000000000000000e+00  -4.9917381239169652e-05 0.0000000000000000e+00 0.0000000000000000e+00  -5.3785242107419224e-05 0.0000000000000000e+00 0.0000000000000000e+00  -5.7684587290106709e-05 0.0000000000000000e+00 0.0000000000000000e+00  -6.1583465808983003e-05 0.0000000000000000e+00 0.0000000000000000e+00  -6.5439631949259532e-05 0.0000000000000000e+00 0.0000000000000000e+00  -6.9185412406540866e-05 0.0000000000000000e+00 0.0000000000000000e+00  -7.2674661013682202e-05 0.0000000000000000e+00 0.0000000000000000e+00  -7.5432830403521288e-05 0.0000000000000000e+00 0.0000000000000000e+00  -7.4850190110764835e-05 0.0000000000000000e+00 0.0000000000000000e+00  -4.5802860382899799e-05 0.0000000000000000e+00 0.0000000000000000e+00  1.9487848704878585e-04 0.0000000000000000e+00 0.0000000000000000e+00  0.0000000000000000e+00 -2.9185702884491394e-09 0.0000000000000000e+00  5.0335813185725857e-09 5.0335812880721494e-09 0.0000000000000000e+00  -4.8016019452159681e-09 2.6886385554560359e-08 0.0000000000000000e+00  -4.3514474225561189e-08 6.3027468835132111e-08 0.0000000000000000e+00  -1.2546424599234566e-07 1.1340088893680415e-07 0.0000000000000000e+00  -2.6481402852558167e-07 1.7779730523777063e-07 0.0000000000000000e+00  -4.7545713568481262e-07 2.5592406471776275e-07 0.0000000000000000e+00  -7.7095476287377443e-07 3.4741524394495014e-07 0.0000000000000000e+00  -1.1644646724651617e-06 4.5182842194339415e-07 0.0000000000000000e+00  -1.6686629398761854e-06 5.6863907919036169e-07 0.0000000000000000e+00  -2.2956593609649529e-06 6.9723452541812993e-07 0.0000000000000000e+00  -3.0569065108666041e-06 8.3690764792238403e-07 0.0000000000000000e+00  -3.9631023827329086e-06 9.8685061041916359e-07 0.0000000000000000e+00  -5.0240866636505868e-06 1.1461486865996736e-06 0.0000000000000000e+00  -6.2487309163763239e-06 1.3137744940081087e-06 0.0000000000000000e+00  -7.6448231975936534e-06 1.4885829279372242e-06 0.0000000000000000e+00  -9.2189479866290500e-06 1.6693071579132079e-06 0.0000000000000000e+00  -1.0976362645454218e-05 1.8545560666791346e-06 0.0000000000000000e+00  -1.2920872039010924e-05 2.0428135370829279e-06 0.0000000000000000e+00  -1.5054703342235290e-05 2.2324399982365501e-06 0.0000000000000000e+00  -1.7378383453206262e-05 2.4216766097402308e-06 0.0000000000000000e+00  -1.9890621787082459e-05 2.6086524047801481e-06 0.0000000000000000e+00  -2.2588201476264266e-05 2.7913945940564545e-06 0.0000000000000000e+00  -2.5465882101658753e-05 2.9678420196462208e-06 0.0000000000000000e+00  -2.8516316887006994e-05 3.1358613757113714e-06 0.0000000000000000e+00  -3.1729986635064888e-05 3.2932652070164748e-06 0.0000000000000000e+00  -3.5095151202819269e-05 3.4378294972716855e-06 0.0000000000000000e+00  -3.8597816369820035e-05 3.5673064370100281e-06 0.0000000000000000e+00  -4.2221708223110001e-05 3.6794233550692056e-06 0.0000000000000000e+00  -4.5948235960779291e-05 3.7718487385902168e-06 0.0000000000000000e+00  -4.9756401368570212e-05 3.8420829190113744e-06 0.0000000000000000e+00  -5.3622566090653529e-05 3.8871728922218745e-06 0.0000000000000000e+00  -5.7519887942064903e-05 3.9029961068633983e-06 0.0000000000000000e+00  -6.1417028244218716e-05 3.8824242229723518e-06 0.0000000000000000e+00  -6.5275290688358314e-05 3.8104538990424990e-06 0.0000000000000000e+00  -6.9041874044429530e-05 3.6512846867485144e-06 0.0000000000000000e+00  -7.2623623991887443e-05 3.3174275119426403e-06 0.0000000000000000e+00  -7.5669790367472746e-05 2.6224689961664920e-06 0.0000000000000000e+00  -7.5321917630449890e-05 1.3491890939063077e-06 0.0000000000000000e+00  -4.4071236714094044e-05 -1.2466172908780495e-07 0.0000000000000000e+00  1.9745396076967448e-04 -9.6470064337666386e-07 0.0000000000000000e+00  0.0000000000000000e+00 -1.9913276750632713e-08 0.0000000000000000e+00  2.6886385673164122e-08 -4.8016022917871557e-09 0.0000000000000000e+00  3.8816425294683081e-08 3.8816425165644971e-08 0.0000000000000000e+00  2.1850198601004089e-08 1.1113810331044806e-07 0.0000000000000000e+00  -3.8361313940003468e-08 2.1192319784195095e-07 0.0000000000000000e+00  -1.5598449376100838e-07 3.4074705481545004e-07 0.0000000000000000e+00  -3.4492614503062252e-07 4.9703609701598016e-07 0.0000000000000000e+00  -6.1876796747212935e-07 6.8006823861881733e-07 0.0000000000000000e+00  -9.9069582999152185e-07 8.8896627325870920e-07 0.0000000000000000e+00  -1.4734226452033405e-06 1.1226881576557437e-06 0.0000000000000000e+00  -2.0791047454570987e-06 1.3800155924914878e-06 0.0000000000000000e+00  -2.8192516747395772e-06 1.6595416941527698e-06 0.0000000000000000e+00  -3.7046292931112353e-06 1.9596583056937860e-06 0.0000000000000000e+00  -4.7451561929244257e-06 2.2785434639151544e-06 0.0000000000000000e+00  -5.9497936248223597e-06 2.6141495848708087e-06 0.0000000000000000e+00  -7.3264293907545674e-06 2.9641929901545519e-06 0.0000000000000000e+00  -8.8817564893619603e-06 3.3261454959846341e-06 0.0000000000000000e+00  -1.0621147647988269e-05 3.6972288215948638e-06 0.0000000000000000e+00  -1.2548527279637107e-05 4.0744126327754184e-06 0.0000000000000000e+00  -1.4666242785482590e-05 4.4544170298568373e-06 0.0000000000000000e+00  -1.6974937525684876e-05 4.8337202336764896e-06 0.0000000000000000e+00  -1.9473428105483732e-05 5.2085721026605047e-06 0.0000000000000000e+00  -2.2158588875163662e-05 5.5750138573008311e-06 0.0000000000000000e+00  -2.5025246595955039e-05 5.9289039526971658e-06 0.0000000000000000e+00  -2.8066088011256711e-05 6.2659493173693162e-06 0.0000000000000000e+00  -3.1271582385530439e-05 6.5817399222346449e-06 0.0000000000000000e+00  -3.4629919677444121e-05 6.8717824317407967e-06 0.0000000000000000e+00  -3.8126962485664194e-05 7.1315246310654328e-06 0.0000000000000000e+00  -4.1746205576650541e-05 7.3563545153269757e-06 0.0000000000000000e+00  -4.5468729818059535e-05 7.5415421217537419e-06 0.0000000000000000e+00  -4.9273126891429676e-05 7.6820589848584204e-06 0.0000000000000000e+00  -5.3135358797846589e-05 7.7721376636920890e-06 0.0000000000000000e+00  -5.7028514298318691e-05 7.8042733508268711e-06 0.0000000000000000e+00  -6.0922478481322567e-05 7.7670228164721312e-06 0.0000000000000000e+00  -6.4783681454674854e-05 7.6402972989195911e-06 0.0000000000000000e+00  -6.8574097622906216e-05 7.3861200590652219e-06 0.0000000000000000e+00  -7.2229624263626024e-05 6.9347397387437566e-06 0.0000000000000000e+00  -7.5395504217530608e-05 6.1818770948950591e-06 0.0000000000000000e+00  -7.4861083250015863e-05 5.0582850974308094e-06 0.0000000000000000e+00  -4.2006795110611117e-05 3.6803769226051380e-06 0.0000000000000000e+00  2.0076384523807860e-04 1.9323442616806486e-06 0.0000000000000000e+00  0.0000000000000000e+00 -6.5838329725504444e-08 0.0000000000000000e+00  6.3027468806470501e-08 -4.3514474495126678e-08 0.0000000000000000e+00  1.1113810313328473e-07 2.1850198619275466e-08 0.0000000000000000e+00  1.3032732112492344e-07 1.3032732124640080e-07 0.0000000000000000e+00  1.0626398380034291e-07 2.8151867282206368e-07 0.0000000000000000e+00  2.4771863981839109e-08 4.7478676255682568e-07 0.0000000000000000e+00  -1.2807534399114294e-07 7.0927914516937184e-07 0.0000000000000000e+00  -3.6589053176372770e-07 9.8392465747963113e-07 0.0000000000000000e+00  -7.0190425780544150e-07 1.2974218070742525e-06 0.0000000000000000e+00  -1.1488891509186790e-06 1.6482234588459552e-06 0.0000000000000000e+00  -1.7190777214716188e-06 2.0345193512853317e-06 0.0000000000000000e+00  -2.4240733508265287e-06 2.4542172846419042e-06 0.0000000000000000e+00  -3.2747542141931084e-06 2.9049236598721084e-06 0.0000000000000000e+00  -4.2811700045305812e-06 3.3839241273500231e-06 0.0000000000000000e+00  -5.4524315345195877e-06 3.8881651617234750e-06 0.0000000000000000e+00  -6.7965935438866887e-06 4.4142375190305756e-06 0.0000000000000000e+00  -8.3205313569463611e-06 4.9583626285393569e-06 0.0000000000000000e+00  -1.0029812393152466e-05 5.5163830723465091e-06 0.0000000000000000e+00  -1.1928563913155129e-05 6.0837583570725125e-06 0.0000000000000000e+00  -1.4019338784611198e-05 6.6555671899821539e-06 0.0000000000000000e+00  -1.6302981446860564e-05 7.2265173844108293e-06 0.0000000000000000e+00  -1.8778496581714631e-05 7.7909643202712621e-06 0.0000000000000000e+00  -2.1442923253227585e-05 8.3429385044551185e-06 0.0000000000000000e+00  -2.4291217345288280e-05 8.8761821090431225e-06 0.0000000000000000e+00  -2.7316144949101130e-05 9.3841932944300245e-06 0.0000000000000000e+00  -3.0508188763262365e-05 9.8602753320427423e-06 0.0000000000000000e+00  -3.3855468477898036e-05 1.0297584534257721e-05 0.0000000000000000e+00  -3.7343674302266691e-05 1.0689165829250026e-05 0.0000000000000000e+00  -4.0956010354049512e-05 1.1027955646369765e-05 0.0000000000000000e+00  -4.4673142082047256e-05 1.1306715012699661e-05 0.0000000000000000e+00  -4.8473141790618060e-05 1.1517824812211818e-05 0.0000000000000000e+00  -5.2331436615695310e-05 1.1652818086020733e-05 0.0000000000000000e+00  -5.6220805237153473e-05 1.1701424244809874e-05 0.0000000000000000e+00  -6.0111579094077427e-05 1.1649749799865676e-05 0.0000000000000000e+00  -6.3972266852683617e-05 1.1477100235349469e-05 0.0000000000000000e+00  -6.7768762964644959e-05 1.1151300609482523e-05 0.0000000000000000e+00  -7.1436151289161915e-05 1.0624639015093405e-05 0.0000000000000000e+00  -7.4579726637185771e-05 9.8392190947256334e-06 0.0000000000000000e+00  -7.3823438969996286e-05 8.7569496140256725e-06 0.0000000000000000e+00  -4.0339185934588582e-05 7.3936797818954539e-06 0.0000000000000000e+00  2.0262778487781406e-04 5.7574016964643125e-06 0.0000000000000000e+00  0.0000000000000000e+00 -1.5502265454048229e-07 0.0000000000000000e+00  1.1340088893730195e-07 -1.2546424617650177e-07 0.0000000000000000e+00  2.1192319773910966e-07 -3.8361313952047171e-08 0.0000000000000000e+00  2.8151867279969937e-07 1.0626398386166736e-07 0.0000000000000000e+00  3.0786449795386134e-07 3.0786449806498105e-07 0.0000000000000000e+00  2.7677187500414986e-07 5.6559735125894682e-07 0.0000000000000000e+00  1.7428873425261833e-07 8.7834327595323466e-07 0.0000000000000000e+00  -1.3238859657656724e-08 1.2446966559688900e-06 0.0000000000000000e+00  -2.9910094174900323e-07 1.6629484864499614e-06 0.0000000000000000e+00  -6.9615076030574438e-07 2.1310653764641046e-06 0.0000000000000000e+00  -1.2167248303207851e-06 2.6466657242616283e-06 0.0000000000000000e+00  -1.8725557272482337e-06 3.2069939794232008e-06 0.0000000000000000e+00  -2.6746772851064166e-06 3.8088938595301028e-06 0.0000000000000000e+00  -3.6333219257069843e-06 4.4487814902042273e-06 0.0000000000000000e+00  -4.7578100125329979e-06 5.1226195562095493e-06 0.0000000000000000e+00  -6.0564313951225943e-06 5.8258937052715544e-06 0.0000000000000000e+00  -7.5363195920045004e-06 6.5535926081846707e-06 0.0000000000000000e+00  -9.2033194352601864e-06 7.3001932012990062e-06 0.0000000000000000e+00  -1.1061849371891161e-05 8.0596527209058133e-06 0.0000000000000000e+00  -1.3114760049866777e-05 8.8254091421491368e-06 0.0000000000000000e+00  -1.5363191209313694e-05 9.5903915341217319e-06 0.0000000000000000e+00  -1.7806429292112809e-05 1.0347041582700177e-05 0.0000000000000000e+00  -2.0441768483527996e-05 1.1087347002233583e-05 0.0000000000000000e+00  -2.3264378057179315e-05 1.1802886735976914e-05 0.0000000000000000e+00  -2.6267178878225354e-05 1.2484886448481433e-05 0.0000000000000000e+00  -2.9440731624696715e-05 1.3124280634679325e-05 0.0000000000000000e+00  -3.2773138702825727e-05 1.3711774213346304e-05 0.0000000000000000e+00  -3.6249961099875613e-05 1.4237890893680169e-05 0.0000000000000000e+00  -3.9854150979589984e-05 1.4692986633763346e-05 0.0000000000000000e+00  -4.3566002114312207e-05 1.5067191895918462e-05 0.0000000000000000e+00  -4.7363126869626248e-05 1.5350223259423885e-05 0.0000000000000000e+00  -5.1220488541855964e-05 1.5530970443145688e-05 0.0000000000000000e+00  -5.5110566497717740e-05 1.5596722066424889e-05 0.0000000000000000e+00  -5.9003811488227130e-05 1.5531870078702616e-05 0.0000000000000000e+00  -6.2869427763246575e-05 1.5316030561161143e-05 0.0000000000000000e+00  -6.6673813766768641e-05 1.4922013010823190e-05 0.0000000000000000e+00  -7.0348331616463047e-05 1.4315488923344271e-05 0.0000000000000000e+00  -7.3479781786458926e-05 1.3460909192175219e-05 0.0000000000000000e+00  -7.2650839770281556e-05 1.2340363852452047e-05 0.0000000000000000e+00  -3.9032758256518733e-05 1.0989449044791242e-05 0.0000000000000000e+00  2.0392606871267311e-04 9.5371293430472678e-06 0.0000000000000000e+00  0.0000000000000000e+00 -3.0160794897913274e-07 0.0000000000000000e+00  1.7779730520563293e-07 -2.6481402864127615e-07 0.0000000000000000e+00  3.4074705475866971e-07 -1.5598449378765508e-07 0.0000000000000000e+00  4.7478676249886163e-07 2.4771863996419021e-08 0.0000000000000000e+00  5.6559735126474688e-07 2.7677187522715362e-07 0.0000000000000000e+00  5.9897984963133332e-07 5.9897984965939796e-07 0.0000000000000000e+00  5.6095426149678663e-07 9.9002518060237163e-07 0.0000000000000000e+00  4.3781871697695021e-07 1.4481870357810146e-06 0.0000000000000000e+00  2.1621156746988332e-07 1.9713715597215697e-06 0.0000000000000000e+00  -1.1681931791190489e-07 2.5570846893462758e-06 0.0000000000000000e+00  -5.7373975557646925e-07 3.2024015237984465e-06 0.0000000000000000e+00  -1.1664446411986176e-06 3.9039331236719495e-06 0.0000000000000000e+00  -1.9061650688046770e-06 4.6577917290287285e-06 0.0000000000000000e+00  -2.8033667431083100e-06 5.4595555427770122e-06 0.0000000000000000e+00  -3.8676393845582241e-06 6.3042344083892667e-06 0.0000000000000000e+00  -5.1075770627121235e-06 7.1862379178798353e-06 0.0000000000000000e+00  -6.5306496969980501e-06 8.0993476854028715e-06 0.0000000000000000e+00  -8.1430663053025772e-06 9.0366956951170027e-06 0.0000000000000000e+00  -9.9496310074394432e-06 9.9907507515931923e-06 0.0000000000000000e+00  -1.1953593214756472e-05 1.0953315077067050e-05 0.0000000000000000e+00  -1.4156493922488302e-05 1.1915533002122536e-05 0.0000000000000000e+00  -1.6558010477589885e-05 1.2867913388633468e-05 0.0000000000000000e+00  -1.9155802630315603e-05 1.3800366820148580e-05 0.0000000000000000e+00  -2.1945363044931754e-05 1.4702257638101773e-05 0.0000000000000000e+00  -2.4919875723945880e-05 1.5562469322143876e-05 0.0000000000000000e+00  -2.8070085994754565e-05 1.6369479364879882e-05 0.0000000000000000e+00  -3.1384185907880924e-05 1.7111436237313304e-05 0.0000000000000000e+00  -3.4847719453275533e-05 1.7776225800371884e-05 0.0000000000000000e+00  -3.8443513642068810e-05 1.8351506884580795e-05 0.0000000000000000e+00  -4.2151645978898306e-05 1.8824685106305998e-05 0.0000000000000000e+00  -4.5949469704666841e-05 1.9182780324008423e-05 0.0000000000000000e+00  -4.9811741766844028e-05 1.9412129571166289e-05 0.0000000000000000e+00  -5.3710942507087207e-05 1.9497865646175065e-05 0.0000000000000000e+00  -5.7617922185534283e-05 1.9423155781334715e-05 0.0000000000000000e+00  -6.1502780226499424e-05 1.9168355191537759e-05 0.0000000000000000e+00  -6.5332942128075414e-05 1.8710682262493587e-05 0.0000000000000000e+00  -6.9039477927676141e-05 1.8025972454775120e-05 0.0000000000000000e+00  -7.2204952628320427e-05 1.7095617825748418e-05 0.0000000000000000e+00  -7.1403474396370705e-05 1.5923620153652575e-05 0.0000000000000000e+00  -3.7803206299814244e-05 1.4570009698671148e-05 0.0000000000000000e+00  2.0516011154506631e-04 1.3159736462894345e-05 0.0000000000000000e+00  0.0000000000000000e+00 -5.1947814349129889e-07 0.0000000000000000e+00  2.5592406469019755e-07 -4.7545713576079682e-07 0.0000000000000000e+00  4.9703609703089228e-07 -3.4492614507020283e-07 0.0000000000000000e+00  7.0927914516168364e-07 -1.2807534391903119e-07 0.0000000000000000e+00  8.7834327606034113e-07 1.7428873442927425e-07 0.0000000000000000e+00  9.9002518066329384e-07 5.6095426150611235e-07 0.0000000000000000e+00  1.0303193293543315e-06 1.0303193293905610e-06 0.0000000000000000e+00  9.8547342310268091e-07 1.5803721317501891e-06 0.0000000000000000e+00  8.4204611888186289e-07 2.2086624199366641e-06 0.0000000000000000e+00  5.8697191881678428e-07 2.9122677811958696e-06 0.0000000000000000e+00  2.0763390525817831e-07 3.6877556857681972e-06 0.0000000000000000e+00  -3.0805514637646823e-07 4.5311421868564469e-06 0.0000000000000000e+00  -9.7156263403319768e-07 5.4378483320848899e-06 0.0000000000000000e+00  -1.7936363221559711e-06 6.4026555832916360e-06 0.0000000000000000e+00  -2.7841943344854121e-06 7.4196617830225966e-06 0.0000000000000000e+00  -3.9522046273988856e-06 8.4822394853324992e-06 0.0000000000000000e+00  -5.3055539051546052e-06 9.5829987145014534e-06 0.0000000000000000e+00  -6.8509063100970972e-06 1.0713756456937231e-05 0.0000000000000000e+00  -8.5935526523657132e-06 1.1865515350393333e-05 0.0000000000000000e+00  -1.0537251427385809e-05 1.3028454123557684e-05 0.0000000000000000e+00  -1.2684063450382111e-05 1.4191932235914876e-05 0.0000000000000000e+00  -1.5034182516957853e-05 1.5344510894100816e-05 0.0000000000000000e+00  -1.7585765144590846e-05 1.6473991999570646e-05 0.0000000000000000e+00  -2.0334763120377296e-05 1.7567475572798461e-05 0.0000000000000000e+00  -2.3274763278214959e-05 1.8611434640309687e-05 0.0000000000000000e+00  -2.6396839765074406e-05 1.9591804249654080e-05 0.0000000000000000e+00  -2.9689425179607234e-05 2.0494078060739026e-05 0.0000000000000000e+00  -3.3138208838546134e-05 2.1303401616666951e-05 0.0000000000000000e+00  -3.6726073881709439e-05 2.2004645923875548e-05 0.0000000000000000e+00  -4.0433091632906521e-05 2.2582438982475182e-05 0.0000000000000000e+00  -4.4236604379109803e-05 2.3021128472116495e-05 0.0000000000000000e+00  -4.8111450509323268e-05 2.3304651914065664e-05 0.0000000000000000e+00  -5.2030420279802749e-05 2.3416315310144840e-05 0.0000000000000000e+00  -5.5965045275753392e-05 2.3338557068479530e-05 0.0000000000000000e+00  -5.9886523083496591e-05 2.3052954