<?xml version="1.0"?>
<VTKFile type="UnstructuredGrid"  version="0.1"  >
<UnstructuredGrid>
<Piece  NumberOfPoints="1681" NumberOfCells="3200">
<Points>
<DataArray  type="Float64"  NumberOfComponents="3"  format="ascii">0 0 0  0.5 0 0  1 0 0  1.5 0 0  2 0 0  2.5 0 0  3 0 0  3.5 0 0  4 0 0  4.5 0 0  5 0 0  5.5 0 0  6 0 0  6.5 0 0  7 0 0  7.5 0 0  8 0 0  8.5 0 0  9 0 0  9.5 0 0  10 0 0  10.5 0 0  11 0 0  11.5 0 0  12 0 0  12.5 0 0  13 0 0  13.5 0 0  14 0 0  14.5 0 0  15 0 0  15.5 0 0  16 0 0  16.5 0 0  17 0 0  17.5 0 0  18 0 0  18.5 0 0  19 0 0  19.5 0 0  20 0 0  0 0.5 0  0.5 0.5 0  1 0.5 0  1.5 0.5 0  2 0.5 0  2.5 0.5 0  3 0.5 0  3.5 0.5 0  4 0.5 0  4.5 0.5 0  5 0.5 0  5.5 0.5 0  6 0.5 0  6.5 0.5 0  7 0.5 0  7.5 0.5 0  8 0.5 0  8.5 0.5 0  9 0.5 0  9.5 0.5 0  10 0.5 0  10.5 0.5 0  11 0.5 0  11.5 0.5 0  12 0.5 0  12.5 0.5 0  13 0.5 0  13.5 0.5 0  14 0.5 0  14.5 0.5 0  15 0.5 0  15.5 0.5 0  16 0.5 0  16.5 0.5 0  17 0.5 0  17.5 0.5 0  18 0.5 0  18.5 0.5 0  19 0.5 0  19.5 0.5 0  20 0.5 0  0 1 0  0.5 1 0  1 1 0  1.5 1 0  2 1 0  2.5 1 0  3 1 0  3.5 1 0  4 1 0  4.5 1 0  5 1 0  5.5 1 0  6 1 0  6.5 1 0  7 1 0  7.5 1 0  8 1 0  8.5 1 0  9 1 0  9.5 1 0  10 1 0  10.5 1 0  11 1 0  11.5 1 0  12 1 0  12.5 1 0  13 1 0  13.5 1 0  14 1 0  14.5 1 0  15 1 0  15.5 1 0  16 1 0  16.5 1 0  17 1 0  17.5 1 0  18 1 0  18.5 1 0  19 1 0  19.5 1 0  20 1 0  0 1.5 0  0.5 1.5 0  1 1.5 0  1.5 1.5 0  2 1.5 0  2.5 1.5 0  3 1.5 0  3.5 1.5 0  4 1.5 0  4.5 1.5 0  5 1.5 0  5.5 1.5 0  6 1.5 0  6.5 1.5 0  7 1.5 0  7.5 1.5 0  8 1.5 0  8.5 1.5 0  9 1.5 0  9.5 1.5 0  10 1.5 0  10.5 1.5 0  11 1.5 0  11.5 1.5 0  12 1.5 0  12.5 1.5 0  13 1.5 0  13.5 1.5 0  14 1.5 0  14.5 1.5 0  15 1.5 0  15.5 1.5 0  16 1.5 0  16.5 1.5 0  17 1.5 0  17.5 1.5 0  18 1.5 0  18.5 1.5 0  19 1.5 0  19.5 1.5 0  20 1.5 0  0 2 0  0.5 2 0  1 2 0  1.5 2 0  2 2 0  2.5 2 0  3 2 0  3.5 2 0  4 2 0  4.5 2 0  5 2 0  5.5 2 0  6 2 0  6.5 2 0  7 2 0  7.5 2 0  8 2 0  8.5 2 0  9 2 0  9.5 2 0  10 2 0  10.5 2 0  11 2 0  11.5 2 0  12 2 0  12.5 2 0  13 2 0  13.5 2 0  14 2 0  14.5 2 0  15 2 0  15.5 2 0  16 2 0  16.5 2 0  17 2 0  17.5 2 0  18 2 0  18.5 2 0  19 2 0  19.5 2 0  20 2 0  0 2.5 0  0.5 2.5 0  1 2.5 0  1.5 2.5 0  2 2.5 0  2.5 2.5 0  3 2.5 0  3.5 2.5 0  4 2.5 0  4.5 2.5 0  5 2.5 0  5.5 2.5 0  6 2.5 0  6.5 2.5 0  7 2.5 0  7.5 2.5 0  8 2.5 0  8.5 2.5 0  9 2.5 0  9.5 2.5 0  10 2.5 0  10.5 2.5 0  11 2.5 0  11.5 2.5 0  12 2.5 0  12.5 2.5 0  13 2.5 0  13.5 2.5 0  14 2.5 0  14.5 2.5 0  15 2.5 0  15.5 2.5 0  16 2.5 0  16.5 2.5 0  17 2.5 0  17.5 2.5 0  18 2.5 0  18.5 2.5 0  19 2.5 0  19.5 2.5 0  20 2.5 0  0 3 0  0.5 3 0  1 3 0  1.5 3 0  2 3 0  2.5 3 0  3 3 0  3.5 3 0  4 3 0  4.5 3 0  5 3 0  5.5 3 0  6 3 0  6.5 3 0  7 3 0  7.5 3 0  8 3 0  8.5 3 0  9 3 0  9.5 3 0  10 3 0  10.5 3 0  11 3 0  11.5 3 0  12 3 0  12.5 3 0  13 3 0  13.5 3 0  14 3 0  14.5 3 0  15 3 0  15.5 3 0  16 3 0  16.5 3 0  17 3 0  17.5 3 0  18 3 0  18.5 3 0  19 3 0  19.5 3 0  20 3 0  0 3.5 0  0.5 3.5 0  1 3.5 0  1.5 3.5 0  2 3.5 0  2.5 3.5 0  3 3.5 0  3.5 3.5 0  4 3.5 0  4.5 3.5 0  5 3.5 0  5.5 3.5 0  6 3.5 0  6.5 3.5 0  7 3.5 0  7.5 3.5 0  8 3.5 0  8.5 3.5 0  9 3.5 0  9.5 3.5 0  10 3.5 0  10.5 3.5 0  11 3.5 0  11.5 3.5 0  12 3.5 0  12.5 3.5 0  13 3.5 0  13.5 3.5 0  14 3.5 0  14.5 3.5 0  15 3.5 0  15.5 3.5 0  16 3.5 0  16.5 3.5 0  17 3.5 0  17.5 3.5 0  18 3.5 0  18.5 3.5 0  19 3.5 0  19.5 3.5 0  20 3.5 0  0 4 0  0.5 4 0  1 4 0  1.5 4 0  2 4 0  2.5 4 0  3 4 0  3.5 4 0  4 4 0  4.5 4 0  5 4 0  5.5 4 0  6 4 0  6.5 4 0  7 4 0  7.5 4 0  8 4 0  8.5 4 0  9 4 0  9.5 4 0  10 4 0  10.5 4 0  11 4 0  11.5 4 0  12 4 0  12.5 4 0  13 4 0  13.5 4 0  14 4 0  14.5 4 0  15 4 0  15.5 4 0  16 4 0  16.5 4 0  17 4 0  17.5 4 0  18 4 0  18.5 4 0  19 4 0  19.5 4 0  20 4 0  0 4.5 0  0.5 4.5 0  1 4.5 0  1.5 4.5 0  2 4.5 0  2.5 4.5 0  3 4.5 0  3.5 4.5 0  4 4.5 0  4.5 4.5 0  5 4.5 0  5.5 4.5 0  6 4.5 0  6.5 4.5 0  7 4.5 0  7.5 4.5 0  8 4.5 0  8.5 4.5 0  9 4.5 0  9.5 4.5 0  10 4.5 0  10.5 4.5 0  11 4.5 0  11.5 4.5 0  12 4.5 0  12.5 4.5 0  13 4.5 0  13.5 4.5 0  14 4.5 0  14.5 4.5 0  15 4.5 0  15.5 4.5 0  16 4.5 0  16.5 4.5 0  17 4.5 0  17.5 4.5 0  18 4.5 0  18.5 4.5 0  19 4.5 0  19.5 4.5 0  20 4.5 0  0 5 0  0.5 5 0  1 5 0  1.5 5 0  2 5 0  2.5 5 0  3 5 0  3.5 5 0  4 5 0  4.5 5 0  5 5 0  5.5 5 0  6 5 0  6.5 5 0  7 5 0  7.5 5 0  8 5 0  8.5 5 0  9 5 0  9.5 5 0  10 5 0  10.5 5 0  11 5 0  11.5 5 0  12 5 0  12.5 5 0  13 5 0  13.5 5 0  14 5 0  14.5 5 0  15 5 0  15.5 5 0  16 5 0  16.5 5 0  17 5 0  17.5 5 0  18 5 0  18.5 5 0  19 5 0  19.5 5 0  20 5 0  0 5.5 0  0.5 5.5 0  1 5.5 0  1.5 5.5 0  2 5.5 0  2.5 5.5 0  3 5.5 0  3.5 5.5 0  4 5.5 0  4.5 5.5 0  5 5.5 0  5.5 5.5 0  6 5.5 0  6.5 5.5 0  7 5.5 0  7.5 5.5 0  8 5.5 0  8.5 5.5 0  9 5.5 0  9.5 5.5 0  10 5.5 0  10.5 5.5 0  11 5.5 0  11.5 5.5 0  12 5.5 0  12.5 5.5 0  13 5.5 0  13.5 5.5 0  14 5.5 0  14.5 5.5 0  15 5.5 0  15.5 5.5 0  16 5.5 0  16.5 5.5 0  17 5.5 0  17.5 5.5 0  18 5.5 0  18.5 5.5 0  19 5.5 0  19.5 5.5 0  20 5.5 0  0 6 0  0.5 6 0  1 6 0  1.5 6 0  2 6 0  2.5 6 0  3 6 0  3.5 6 0  4 6 0  4.5 6 0  5 6 0  5.5 6 0  6 6 0  6.5 6 0  7 6 0  7.5 6 0  8 6 0  8.5 6 0  9 6 0  9.5 6 0  10 6 0  10.5 6 0  11 6 0  11.5 6 0  12 6 0  12.5 6 0  13 6 0  13.5 6 0  14 6 0  14.5 6 0  15 6 0  15.5 6 0  16 6 0  16.5 6 0  17 6 0  17.5 6 0  18 6 0  18.5 6 0  19 6 0  19.5 6 0  20 6 0  0 6.5 0  0.5 6.5 0  1 6.5 0  1.5 6.5 0  2 6.5 0  2.5 6.5 0  3 6.5 0  3.5 6.5 0  4 6.5 0  4.5 6.5 0  5 6.5 0  5.5 6.5 0  6 6.5 0  6.5 6.5 0  7 6.5 0  7.5 6.5 0  8 6.5 0  8.5 6.5 0  9 6.5 0  9.5 6.5 0  10 6.5 0  10.5 6.5 0  11 6.5 0  11.5 6.5 0  12 6.5 0  12.5 6.5 0  13 6.5 0  13.5 6.5 0  14 6.5 0  14.5 6.5 0  15 6.5 0  15.5 6.5 0  16 6.5 0  16.5 6.5 0  17 6.5 0  17.5 6.5 0  18 6.5 0  18.5 6.5 0  19 6.5 0  19.5 6.5 0  20 6.5 0  0 7 0  0.5 7 0  1 7 0  1.5 7 0  2 7 0  2.5 7 0  3 7 0  3.5 7 0  4 7 0  4.5 7 0  5 7 0  5.5 7 0  6 7 0  6.5 7 0  7 7 0  7.5 7 0  8 7 0  8.5 7 0  9 7 0  9.5 7 0  10 7 0  10.5 7 0  11 7 0  11.5 7 0  12 7 0  12.5 7 0  13 7 0  13.5 7 0  14 7 0  14.5 7 0  15 7 0  15.5 7 0  16 7 0  16.5 7 0  17 7 0  17.5 7 0  18 7 0  18.5 7 0  19 7 0  19.5 7 0  20 7 0  0 7.5 0  0.5 7.5 0  1 7.5 0  1.5 7.5 0  2 7.5 0  2.5 7.5 0  3 7.5 0  3.5 7.5 0  4 7.5 0  4.5 7.5 0  5 7.5 0  5.5 7.5 0  6 7.5 0  6.5 7.5 0  7 7.5 0  7.5 7.5 0  8 7.5 0  8.5 7.5 0  9 7.5 0  9.5 7.5 0  10 7.5 0  10.5 7.5 0  11 7.5 0  11.5 7.5 0  12 7.5 0  12.5 7.5 0  13 7.5 0  13.5 7.5 0  14 7.5 0  14.5 7.5 0  15 7.5 0  15.5 7.5 0  16 7.5 0  16.5 7.5 0  17 7.5 0  17.5 7.5 0  18 7.5 0  18.5 7.5 0  19 7.5 0  19.5 7.5 0  20 7.5 0  0 8 0  0.5 8 0  1 8 0  1.5 8 0  2 8 0  2.5 8 0  3 8 0  3.5 8 0  4 8 0  4.5 8 0  5 8 0  5.5 8 0  6 8 0  6.5 8 0  7 8 0  7.5 8 0  8 8 0  8.5 8 0  9 8 0  9.5 8 0  10 8 0  10.5 8 0  11 8 0  11.5 8 0  12 8 0  12.5 8 0  13 8 0  13.5 8 0  14 8 0  14.5 8 0  15 8 0  15.5 8 0  16 8 0  16.5 8 0  17 8 0  17.5 8 0  18 8 0  18.5 8 0  19 8 0  19.5 8 0  20 8 0  0 8.5 0  0.5 8.5 0  1 8.5 0  1.5 8.5 0  2 8.5 0  2.5 8.5 0  3 8.5 0  3.5 8.5 0  4 8.5 0  4.5 8.5 0  5 8.5 0  5.5 8.5 0  6 8.5 0  6.5 8.5 0  7 8.5 0  7.5 8.5 0  8 8.5 0  8.5 8.5 0  9 8.5 0  9.5 8.5 0  10 8.5 0  10.5 8.5 0  11 8.5 0  11.5 8.5 0  12 8.5 0  12.5 8.5 0  13 8.5 0  13.5 8.5 0  14 8.5 0  14.5 8.5 0  15 8.5 0  15.5 8.5 0  16 8.5 0  16.5 8.5 0  17 8.5 0  17.5 8.5 0  18 8.5 0  18.5 8.5 0  19 8.5 0  19.5 8.5 0  20 8.5 0  0 9 0  0.5 9 0  1 9 0  1.5 9 0  2 9 0  2.5 9 0  3 9 0  3.5 9 0  4 9 0  4.5 9 0  5 9 0  5.5 9 0  6 9 0  6.5 9 0  7 9 0  7.5 9 0  8 9 0  8.5 9 0  9 9 0  9.5 9 0  10 9 0  10.5 9 0  11 9 0  11.5 9 0  12 9 0  12.5 9 0  13 9 0  13.5 9 0  14 9 0  14.5 9 0  15 9 0  15.5 9 0  16 9 0  16.5 9 0  17 9 0  17.5 9 0  18 9 0  18.5 9 0  19 9 0  19.5 9 0  20 9 0  0 9.5 0  0.5 9.5 0  1 9.5 0  1.5 9.5 0  2 9.5 0  2.5 9.5 0  3 9.5 0  3.5 9.5 0  4 9.5 0  4.5 9.5 0  5 9.5 0  5.5 9.5 0  6 9.5 0  6.5 9.5 0  7 9.5 0  7.5 9.5 0  8 9.5 0  8.5 9.5 0  9 9.5 0  9.5 9.5 0  10 9.5 0  10.5 9.5 0  11 9.5 0  11.5 9.5 0  12 9.5 0  12.5 9.5 0  13 9.5 0  13.5 9.5 0  14 9.5 0  14.5 9.5 0  15 9.5 0  15.5 9.5 0  16 9.5 0  16.5 9.5 0  17 9.5 0  17.5 9.5 0  18 9.5 0  18.5 9.5 0  19 9.5 0  19.5 9.5 0  20 9.5 0  0 10 0  0.5 10 0  1 10 0  1.5 10 0  2 10 0  2.5 10 0  3 10 0  3.5 10 0  4 10 0  4.5 10 0  5 10 0  5.5 10 0  6 10 0  6.5 10 0  7 10 0  7.5 10 0  8 10 0  8.5 10 0  9 10 0  9.5 10 0  10 10 0  10.5 10 0  11 10 0  11.5 10 0  12 10 0  12.5 10 0  13 10 0  13.5 10 0  14 10 0  14.5 10 0  15 10 0  15.5 10 0  16 10 0  16.5 10 0  17 10 0  17.5 10 0  18 10 0  18.5 10 0  19 10 0  19.5 10 0  20 10 0  0 10.5 0  0.5 10.5 0  1 10.5 0  1.5 10.5 0  2 10.5 0  2.5 10.5 0  3 10.5 0  3.5 10.5 0  4 10.5 0  4.5 10.5 0  5 10.5 0  5.5 10.5 0  6 10.5 0  6.5 10.5 0  7 10.5 0  7.5 10.5 0  8 10.5 0  8.5 10.5 0  9 10.5 0  9.5 10.5 0  10 10.5 0  10.5 10.5 0  11 10.5 0  11.5 10.5 0  12 10.5 0  12.5 10.5 0  13 10.5 0  13.5 10.5 0  14 10.5 0  14.5 10.5 0  15 10.5 0  15.5 10.5 0  16 10.5 0  16.5 10.5 0  17 10.5 0  17.5 10.5 0  18 10.5 0  18.5 10.5 0  19 10.5 0  19.5 10.5 0  20 10.5 0  0 11 0  0.5 11 0  1 11 0  1.5 11 0  2 11 0  2.5 11 0  3 11 0  3.5 11 0  4 11 0  4.5 11 0  5 11 0  5.5 11 0  6 11 0  6.5 11 0  7 11 0  7.5 11 0  8 11 0  8.5 11 0  9 11 0  9.5 11 0  10 11 0  10.5 11 0  11 11 0  11.5 11 0  12 11 0  12.5 11 0  13 11 0  13.5 11 0  14 11 0  14.5 11 0  15 11 0  15.5 11 0  16 11 0  16.5 11 0  17 11 0  17.5 11 0  18 11 0  18.5 11 0  19 11 0  19.5 11 0  20 11 0  0 11.5 0  0.5 11.5 0  1 11.5 0  1.5 11.5 0  2 11.5 0  2.5 11.5 0  3 11.5 0  3.5 11.5 0  4 11.5 0  4.5 11.5 0  5 11.5 0  5.5 11.5 0  6 11.5 0  6.5 11.5 0  7 11.5 0  7.5 11.5 0  8 11.5 0  8.5 11.5 0  9 11.5 0  9.5 11.5 0  10 11.5 0  10.5 11.5 0  11 11.5 0  11.5 11.5 0  12 11.5 0  12.5 11.5 0  13 11.5 0  13.5 11.5 0  14 11.5 0  14.5 11.5 0  15 11.5 0  15.5 11.5 0  16 11.5 0  16.5 11.5 0  17 11.5 0  17.5 11.5 0  18 11.5 0  18.5 11.5 0  19 11.5 0  19.5 11.5 0  20 11.5 0  0 12 0  0.5 12 0  1 12 0  1.5 12 0  2 12 0  2.5 12 0  3 12 0  3.5 12 0  4 12 0  4.5 12 0  5 12 0  5.5 12 0  6 12 0  6.5 12 0  7 12 0  7.5 12 0  8 12 0  8.5 12 0  9 12 0  9.5 12 0  10 12 0  10.5 12 0  11 12 0  11.5 12 0  12 12 0  12.5 12 0  13 12 0  13.5 12 0  14 12 0  14.5 12 0  
[...]
<PointData  Vectors="f_5173-0"> 
<DataArray  type="Float64"  Name="f_5173-0"  NumberOfComponents="3" format="ascii">0.0000000000000000e+00 0.0000000000000000e+00 0.0000000000000000e+00  -1.6150904495943098e-07 0.0000000000000000e+00 0.0000000000000000e+00  -9.0362893590577272e-07 0.0000000000000000e+00 0.0000000000000000e+00  -2.9206948315117267e-06 0.0000000000000000e+00 0.0000000000000000e+00  -6.8413858101233164e-06 0.0000000000000000e+00 0.0000000000000000e+00  -1.3284963632003347e-05 0.0000000000000000e+00 0.0000000000000000e+00  -2.2860701462801258e-05 0.0000000000000000e+00 0.0000000000000000e+00  -3.6164138814291701e-05 0.0000000000000000e+00 0.0000000000000000e+00  -5.3773422362661869e-05 0.0000000000000000e+00 0.0000000000000000e+00  -7.6245620242849932e-05 0.0000000000000000e+00 0.0000000000000000e+00  -1.0411286012433000e-04 0.0000000000000000e+00 0.0000000000000000e+00  -1.3787821919852424e-04 0.0000000000000000e+00 0.0000000000000000e+00  -1.7801133235295259e-04 0.0000000000000000e+00 0.0000000000000000e+00  -2.2494370373592044e-04 0.0000000000000000e+00 0.0000000000000000e+00  -2.7906371881404954e-04 0.0000000000000000e+00 0.0000000000000000e+00  -3.4071136079729135e-04 0.0000000000000000e+00 0.0000000000000000e+00  -4.1017263568554971e-04 0.0000000000000000e+00 0.0000000000000000e+00  -4.8767369835658663e-04 0.0000000000000000e+00 0.0000000000000000e+00  -5.7337463676348610e-04 0.0000000000000000e+00 0.0000000000000000e+00  -6.6736279066458319e-04 0.0000000000000000e+00 0.0000000000000000e+00  -7.6964531616568717e-04 0.0000000000000000e+00 0.0000000000000000e+00  -8.8014038325322458e-04 0.0000000000000000e+00 0.0000000000000000e+00  -9.9866577609363199e-04 0.0000000000000000e+00 0.0000000000000000e+00  -1.1249225081517021e-03 0.0000000000000000e+00 0.0000000000000000e+00  -1.2584689197073947e-03 0.0000000000000000e+00 0.0000000000000000e+00  -1.3986767927729655e-03 0.0000000000000000e+00 0.0000000000000000e+00  -1.5446538799901495e-03 0.0000000000000000e+00 0.0000000000000000e+00  -1.6951044305517310e-03 0.0000000000000000e+00 0.0000000000000000e+00  -1.8480766068092501e-03 0.0000000000000000e+00 0.0000000000000000e+00  -2.0005061805916506e-03 0.0000000000000000e+00 0.0000000000000000e+00  -2.1473985881799293e-03 0.0000000000000000e+00 0.0000000000000000e+00  -2.2803799259945813e-03 0.0000000000000000e+00 0.0000000000000000e+00  -2.3851696124428073e-03 0.0000000000000000e+00 0.0000000000000000e+00  -2.4372581053802691e-03 0.0000000000000000e+00 0.0000000000000000e+00  -2.3946947371138684e-03 0.0000000000000000e+00 0.0000000000000000e+00  -2.1864182042578163e-03 0.0000000000000000e+00 0.0000000000000000e+00  -1.6940853182786817e-03 0.0000000000000000e+00 0.0000000000000000e+00  -7.2508164395734289e-04 0.0000000000000000e+00 0.0000000000000000e+00  1.0253781886527479e-03 0.0000000000000000e+00 0.0000000000000000e+00  4.0245341085260056e-03 0.0000000000000000e+00 0.0000000000000000e+00  8.9699665866457973e-03 0.0000000000000000e+00 0.0000000000000000e+00  0.0000000000000000e+00 -1.6150904340184949e-07 0.0000000000000000e+00  2.2189104938372141e-07 2.2189105014288782e-07 0.0000000000000000e+00  -2.1872934099225316e-07 1.2026518837365349e-06 0.0000000000000000e+00  -1.9241679811596144e-06 2.7944532400726656e-06 0.0000000000000000e+00  -5.5284215966014631e-06 5.0063238852909092e-06 0.0000000000000000e+00  -1.1654575796190213e-05 7.8337883119999257e-06 0.0000000000000000e+00  -2.0913187195673619e-05 1.1265380004773318e-05 0.0000000000000000e+00  -3.3900354118050080e-05 1.5285357295323570e-05 0.0000000000000000e+00  -5.1194704876784767e-05 1.9874352331695222e-05 0.0000000000000000e+00  -7.3353899097986031e-05 2.5009333719731459e-05 0.0000000000000000e+00  -1.0091081896752308e-04 3.0663367877623547e-05 0.0000000000000000e+00  -1.3436947619391136e-04 3.6805323923660265e-05 0.0000000000000000e+00  -1.7420062679416343e-04 4.3399565645746797e-05 0.0000000000000000e+00  -2.2083708500967423e-04 5.0405647950586295e-05 0.0000000000000000e+00  -2.7466873398740958e-04 5.7778030026029462e-05 0.0000000000000000e+00  -3.3603723655009637e-04 6.5465817300342337e-05 0.0000000000000000e+00  -4.0523044975670266e-04 7.3412545268886298e-05 0.0000000000000000e+00  -4.8247653530051726e-04 8.1556018907747360e-05 0.0000000000000000e+00  -5.6793772298909179e-04 8.9828221024020762e-05 0.0000000000000000e+00  -6.6170360483831586e-04 9.8155301392836887e-05 0.0000000000000000e+00  -7.6378367292284860e-04 1.0645765527721046e-04 0.0000000000000000e+00  -8.7409849170311900e-04 1.1465009405705725e-04 0.0000000000000000e+00  -9.9246827975603457e-04 1.2264210227916136e-04 0.0000000000000000e+00  -1.1185965200768062e-03 1.3033816340662040e-04 0.0000000000000000e+00  -1.2520440751636081e-03 1.3763812196843081e-04 0.0000000000000000e+00  -1.3921853502548058e-03 1.4443753488542922e-04 0.0000000000000000e+00  -1.5381309040207432e-03 1.5062795601122252e-04 0.0000000000000000e+00  -1.6885880754339993e-03 1.5609711077749547e-04 0.0000000000000000e+00  -1.8416084654984850e-03 1.6072898109793945e-04 0.0000000000000000e+00  -1.9941315245989078e-03 1.6440398693499925e-04 0.0000000000000000e+00  -2.1411660328273566e-03 1.6699980052381548e-04 0.0000000000000000e+00  -2.2743395131995846e-03 1.6839396191560392e-04 0.0000000000000000e+00  -2.3793674105197335e-03 1.6847044352881241e-04 0.0000000000000000e+00  -2.4317241613529897e-03 1.6713349812648868e-04 0.0000000000000000e+00  -2.3894198008108263e-03 1.6433281783220544e-04 0.0000000000000000e+00  -2.1813137007529347e-03 1.6010230203465664e-04 0.0000000000000000e+00  -1.6889214453018994e-03 1.5460623807991755e-04 0.0000000000000000e+00  -7.1940089946750615e-04 1.4816125972660969e-04 0.0000000000000000e+00  1.0323580815417689e-03 1.4112717589029539e-04 0.0000000000000000e+00  4.0337298749556355e-03 1.3329502206762693e-04 0.0000000000000000e+00  8.9764316579992610e-03 1.2139613818449747e-04 0.0000000000000000e+00  0.0000000000000000e+00 -9.0362893854572232e-07 0.0000000000000000e+00  1.2026518857951441e-06 -2.1872934208515505e-07 0.0000000000000000e+00  1.7214385831927288e-06 1.7214385817932159e-06 0.0000000000000000e+00  9.6857836972379889e-07 4.9111153080099750e-06 0.0000000000000000e+00  -1.6832696232423406e-06 9.3441773338052879e-06 0.0000000000000000e+00  -6.8565433310004643e-06 1.5006017394958993e-05 0.0000000000000000e+00  -1.5162836613534187e-05 2.1874028269927453e-05 0.0000000000000000e+00  -2.7199598166966295e-05 2.9917962788927781e-05 0.0000000000000000e+00  -4.3547005088889096e-05 3.9100096400662851e-05 0.0000000000000000e+00  -6.4764575701723318e-05 4.9375093904764763e-05 0.0000000000000000e+00  -9.1387465882933967e-05 6.0689644085925126e-05 0.0000000000000000e+00  -1.2392244709548021e-04 7.2981956744842434e-05 0.0000000000000000e+00  -1.6284356480336686e-04 8.6181193394827124e-05 0.0000000000000000e+00  -2.0858747539811444e-04 1.0020688029151179e-04 0.0000000000000000e+00  -2.6154846251403348e-04 1.1496833996160042e-04 0.0000000000000000e+00  -3.2207313679963930e-04 1.3036417276447005e-04 0.0000000000000000e+00  -3.9045482245252621e-04 1.4628181879801477e-04 0.0000000000000000e+00  -4.6692762228100338e-04 1.6259723055445091e-04 0.0000000000000000e+00  -5.5166011883003862e-04 1.7917468611518939e-04 0.0000000000000000e+00  -6.4474859083057132e-04 1.9586677081021253e-04 0.0000000000000000e+00  -7.4620946187021271e-04 2.1251455058224006e-04 0.0000000000000000e+00  -8.5597037806295947e-04 2.2894795277185730e-04 0.0000000000000000e+00  -9.7385869851766024e-04 2.4498635873174037e-04 0.0000000000000000e+00  -1.0995850285079954e-03 2.6043939817505250e-04 0.0000000000000000e+00  -1.2327172813617301e-03 2.7510791974667077e-04 0.0000000000000000e+00  -1.3726368144448896e-03 2.8878510153274489e-04 0.0000000000000000e+00  -1.5184610171673160e-03 3.0125767195177767e-04 0.0000000000000000e+00  -1.6689038460136630e-03 3.1230725990102090e-04 0.0000000000000000e+00  -1.8220229665688336e-03 3.2171202523160818e-04 0.0000000000000000e+00  -1.9747623873107218e-03 3.2924900101594795e-04 0.0000000000000000e+00  -2.1221317070271380e-03 3.3469808889020951e-04 0.0000000000000000e+00  -2.2557509429426631e-03 3.3784944735588035e-04 0.0000000000000000e+00  -2.3613112996722259e-03 3.3851702258071696e-04 0.0000000000000000e+00  -2.4142325143633246e-03 3.3656170122420666e-04 0.0000000000000000e+00  -2.3724201578126406e-03 3.3192655809179535e-04 0.0000000000000000e+00  -2.1645582898776046e-03 3.2468051593671483e-04 0.0000000000000000e+00  -1.6719070172939916e-03 3.1504843662865213e-04 0.0000000000000000e+00  -7.0132682858813176e-04 3.0336199571894706e-04 0.0000000000000000e+00  1.0524476920121763e-03 2.8977367287610987e-04 0.0000000000000000e+00  4.0561540856244764e-03 2.7341196715326941e-04 0.0000000000000000e+00  8.9980532480457287e-03 2.5055058271135084e-04 0.0000000000000000e+00  0.0000000000000000e+00 -2.9206948346050068e-06 0.0000000000000000e+00  2.7944532399601499e-06 -1.9241679818721313e-06 0.0000000000000000e+00  4.9111153068075702e-06 9.6857836841599717e-07 0.0000000000000000e+00  5.7481439523893720e-06 5.7481439526391544e-06 0.0000000000000000e+00  4.6838836873409451e-06 1.2398638944254399e-05 0.0000000000000000e+00  1.0970271294299593e-06 2.0895013691214262e-05 0.0000000000000000e+00  -5.6245036335612729e-06 3.1202086485716738e-05 0.0000000000000000e+00  -1.6079596530797462e-05 4.3274445287005286e-05 0.0000000000000000e+00  -3.0850623357176550e-05 5.7056102619603039e-05 0.0000000000000000e+00  -5.0500026626607529e-05 7.2479922591195127e-05 0.0000000000000000e+00  -7.5566661423287276e-05 8.9466900622090564e-05 0.0000000000000000e+00  -1.0656183531477586e-04 1.0792534469688030e-04 0.0000000000000000e+00  -1.4396502031906384e-04 1.2774999888298539e-04 0.0000000000000000e+00  -1.8821922462339526e-04 1.4882115032083774e-04 0.0000000000000000e+00  -2.3972602001887095e-04 1.7100376234429699e-04 0.0000000000000000e+00  -2.9884022600676287e-04 1.9414667835164891e-04 0.0000000000000000e+00  -3.6586425144149125e-04 2.1808194282645297e-04 0.0000000000000000e+00  -4.4104208368166110e-04 2.4262428772957052e-04 0.0000000000000000e+00  -5.2455288205578536e-04 2.6757083305690624e-04 0.0000000000000000e+00  -6.1650405571096625e-04 2.9270104939973807e-04 0.0000000000000000e+00  -7.1692354555104873e-04 3.1777702652685042e-04 0.0000000000000000e+00  -8.2575071237644710e-04 3.4254408514866825e-04 0.0000000000000000e+00  -9.4282462201962969e-04 3.6673175899607570e-04 0.0000000000000000e+00  -1.0678673643595576e-03 3.9005516215572449e-04 0.0000000000000000e+00  -1.2004578941519387e-03 4.1221674605138058e-04 0.0000000000000000e+00  -1.3399879251475314e-03 4.3290844913607254e-04 0.0000000000000000e+00  -1.4855842059732284e-03 4.5181426490022131e-04 0.0000000000000000e+00  -1.6359685531064975e-03 4.6861332513157113e-04 0.0000000000000000e+00  -1.7892040576930966e-03 4.8298375277766115e-04 0.0000000000000000e+00  -1.9422359127919783e-03 4.9460782841198505e-04 0.0000000000000000e+00  -2.0900672819831544e-03 5.0317946993825744e-04 0.0000000000000000e+00  -2.2242982165961694e-03 5.0841560766738539e-04 0.0000000000000000e+00  -2.3305770031184893e-03 5.1007349118519310e-04 0.0000000000000000e+00  -2.3842443804147281e-03 5.0797554229844695e-04 0.0000000000000000e+00  -2.3430764946701624e-03 5.0204037110478160e-04 0.0000000000000000e+00  -2.1355708956978469e-03 4.9230978759318806e-04 0.0000000000000000e+00  -1.6427667959767963e-03 4.7894217779185204e-04 0.0000000000000000e+00  -6.7136538591988984e-04 4.6210795808259981e-04 0.0000000000000000e+00  1.0837503423607165e-03 4.4167897938292712e-04 0.0000000000000000e+00  4.0883691394439890e-03 4.1660337431191635e-04 0.0000000000000000e+00  9.0284243355493073e-03 3.8411049989830771e-04 0.0000000000000000e+00  0.0000000000000000e+00 -6.8413858123059365e-06 0.0000000000000000e+00  5.0063238849647312e-06 -5.5284215973586725e-06 0.0000000000000000e+00  9.3441773345402533e-06 -1.6832696239860639e-06 0.0000000000000000e+00  1.2398638943159751e-05 4.6838836875729788e-06 0.0000000000000000e+00  1.3549881738323604e-05 1.3549881739080159e-05 0.0000000000000000e+00  1.2177333935798210e-05 2.4880191318029699e-05 0.0000000000000000e+00  7.6681928699286141e-06 3.8627812972309326e-05 0.0000000000000000e+00  -5.7822453712357765e-07 5.4732754840313272e-05 0.0000000000000000e+00  -1.3147086008082897e-05 7.3121360005025011e-05 0.0000000000000000e+00  -3.0604683711607655e-05 9.3705420601972045e-05 0.0000000000000000e+00  -5.3494855116924054e-05 1.1638112459288008e-04 0.0000000000000000e+00  -8.2335101391946044e-05 1.4102789099413254e-04 0.0000000000000000e+00  -1.1761236507731126e-04 1.6750714342708434e-04 0.0000000000000000e+00  -1.5977844581529401e-04 1.9566106982907603e-04 0.0000000000000000e+00  -2.0924504263519097e-04 2.2531141922231166e-04 0.0000000000000000e+00  -2.6637841753393283e-04 2.5625839112357611e-04 0.0000000000000000e+00  -3.3149367583739406e-04 2.8827967874339293e-04 0.0000000000000000e+00  -4.0484864894609908e-04 3.2112973177572245e-04 0.0000000000000000e+00  -4.8663733308713513e-04 3.5453930805373808e-04 0.0000000000000000e+00  -5.7698276255686431e-04 3.8821538471376141e-04 0.0000000000000000e+00  -6.7592903753017669e-04 4.2184149824382923e-04 0.0000000000000000e+00  -7.8343191060681783e-04 4.5507857841101042e-04 0.0000000000000000e+00  -8.9934672590063103e-04 4.8756633392378146e-04 0.0000000000000000e+00  -1.0234113486332819e-03 5.1892523931269081e-04 0.0000000000000000e+00  -1.1552195664907934e-03 5.4875916659856633e-04 0.0000000000000000e+00  -1.2941764685975043e-03 5.7665870953697168e-04 0.0000000000000000e+00  -1.4394200675005506e-03 6.0220527499395477e-04 0.0000000000000000e+00  -1.5896804099965061e-03 6.2497608416321260e-04 0.0000000000000000e+00  -1.7430243609387857e-03 6.4455035853046088e-04 0.0000000000000000e+00  -1.8963941365267862e-03 6.6051717842666711e-04 0.0000000000000000e+00  -2.0447795046460520e-03 6.7248577726039917e-04 0.0000000000000000e+00  -2.1797511480903618e-03 6.8009925790231635e-04 0.0000000000000000e+00  -2.2869044590772864e-03 6.8305256037113932e-04 0.0000000000000000e+00  -2.3414954364597909e-03 6.8111425067473967e-04 0.0000000000000000e+00  -2.3011789195974126e-03 6.7414803761340920e-04 0.0000000000000000e+00  -2.0943036827942131e-03 6.6212201350544439e-04 0.0000000000000000e+00  -1.6017744275972435e-03 6.4508002934111040e-04 0.0000000000000000e+00  -6.3027276607604112e-04 6.2303281145948840e-04 0.0000000000000000e+00  1.1250463563651724e-03 5.9572160695181109e-04 0.0000000000000000e+00  4.1292144491141547e-03 5.6225882962129099e-04 0.0000000000000000e+00  9.0670728094293038e-03 5.2084314762672421e-04 0.0000000000000000e+00  0.0000000000000000e+00 -1.3284963633001880e-05 0.0000000000000000e+00  7.8337883122346707e-06 -1.1654575796193899e-05 0.0000000000000000e+00  1.5006017394172011e-05 -6.8565433324028196e-06 0.0000000000000000e+00  2.0895013691815601e-05 1.0970271293066038e-06 0.0000000000000000e+00  2.4880191320993230e-05 1.2177333933564342e-05 0.0000000000000000e+00  2.6341301993567490e-05 2.6341301991284329e-05 0.0000000000000000e+00  2.4664654643674460e-05 4.3531004293693995e-05 0.0000000000000000e+00  1.9247458102110832e-05 6.3672846261845169e-05 0.0000000000000000e+00  9.5011960284830554e-06 8.6676584157407134e-05 0.0000000000000000e+00  -5.1451116684330520e-06 1.1243412638294136e-04 0.0000000000000000e+00  -2.5241452208835845e-05 1.4081815004008175e-04 0.0000000000000000e+00  -5.1313053635892922e-05 1.7168058391958590e-04 0.0000000000000000e+00  -8.3856256217400952e-05 2.0485101193812267e-04 0.0000000000000000e+00  -1.2333399148106564e-04 2.4013505388328549e-04 0.0000000000000000e+00  -1.7017084972791878e-04 2.7731278553410715e-04 0.0000000000000000e+00  -2.2474772312478311e-04 3.1613726726647135e-04 0.0000000000000000e+00  -2.8739601244373049e-04 3.5633325816320383e-04 0.0000000000000000e+00  -3.5839137600577849e-04 3.9759620034889048e-04 0.0000000000000000e+00  -4.3794696834928328e-04 4.3959156483392380e-04 0.0000000000000000e+00  -5.2620604239394055e-04 4.8195465489110433e-04 0.0000000000000000e+00  -6.2323363193895445e-04 5.2429096509091870e-04 0.0000000000000000e+00  -7.2900671695987160e-04 5.6617719309366244e-04 0.0000000000000000e+00  -8.4340166406790670e-04 6.0716299758797247e-04 0.0000000000000000e+00  -9.6617657652025072e-04 6.4677359025510674e-04 0.0000000000000000e+00  -1.0969440237800475e-03 6.8451324558857171e-04 0.0000000000000000e+00  -1.2351256289740364e-03 7.1986981517967738e-04 0.0000000000000000e+00  -1.3798727220288146e-03 7.5232035092394421e-04 0.0000000000000000e+00  -1.5299241996796569e-03 7.8133798449543895e-04 0.0000000000000000e+00  -1.6833496096105443e-03 8.0640028584350347e-04 0.0000000000000000e+00  -1.8370853098472039e-03 8.2699942356163469e-04 0.0000000000000000e+00  -1.9861033961727000e-03 8.4265452709861831e-04 0.0000000000000000e+00  -2.1219408542182496e-03 8.5292657216959409e-04 0.0000000000000000e+00  -2.2301387686273710e-03 8.5743559256930529e-04 0.0000000000000000e+00  -2.2858751924265770e-03 8.5587856676308505e-04 0.0000000000000000e+00  -2.2467063132076853e-03 8.4804324753889675e-04 0.0000000000000000e+00  -2.0408782759174654e-03 8.3380792091164728e-04 0.0000000000000000e+00  -1.5492301243505125e-03 8.1311009787815342e-04 0.0000000000000000e+00  -5.7848633159947327e-04 7.8586215782820734e-04 0.0000000000000000e+00  1.1759620828405177e-03 7.5179915263871399e-04 0.0000000000000000e+00  4.1787038966915021e-03 7.1028118148433244e-04 0.0000000000000000e+00  9.1142170624202816e-03 6.6014786748676518e-04 0.0000000000000000e+00  0.0000000000000000e+00 -2.2860701464458650e-05 0.0000000000000000e+00  1.1265380005544951e-05 -2.0913187196013381e-05 0.0000000000000000e+00  2.1874028269619082e-05 -1.5162836615650902e-05 0.0000000000000000e+00  3.1202086484925060e-05 -5.6245036353932662e-06 0.0000000000000000e+00  3.8627812972013318e-05 7.6681928695836260e-06 0.0000000000000000e+00  4.3531004292854043e-05 2.4664654646053281e-05 0.0000000000000000e+00  4.5297073018598766e-05 4.5297073020840978e-05 0.0000000000000000e+00  4.3320985967292076e-05 6.9479447141334108e-05 0.0000000000000000e+00  3.7010501514826033e-05 9.7106316580638103e-05 0.0000000000000000e+00  2.5789280779024627e-05 1.2805124209633306e-04 0.0000000000000000e+00  9.1001814940495655e-06 1.6216507438333909e-04 0.0000000000000000e+00  -1.3591128259844967e-05 1.9927406207522803e-04 0.0000000000000000e+00  -4.2792168416615065e-05 2.3917785633485069e-04 0.0000000000000000e+00  -7.8979216228405139e-05 2.8164747582966961e-04 0.0000000000000000e+00  -1.2259241763294752e-04 3.2642330435559547e-04 0.0000000000000000e+00  -1.7403041809798011e-04 3.7321320357749298e-04 0.0000000000000000e+00  -2.3364449110701966e-04 4.2169083428640765e-04 0.0000000000000000e+00  -3.0173213295909185e-04 4.7149429077026353e-04 0.0000000000000000e+00  -3.7853006211061469e-04 5.2222516313904076e-04 0.0000000000000000e+00  -4.6420648835577010e-04 5.7344815115051143e-04 0.0000000000000000e+00  -5.5885236171185847e-04 6.2469135909869373e-04 0.0000000000000000e+00  -6.6247099773816104e-04 6.7544740426290866e-04 0.0000000000000000e+00  -7.7496486675286160e-04 7.2517547079047236e-04 0.0000000000000000e+00  -8.9611717519897586e-04 7.7330443708442588e-04 0.0000000000000000e+00  -1.0255636985750513e-03 8.1923719958149489e-04 0.0000000000000000e+00  -1.1627463237634270e-03 8.6235631136045868e-04 0.0000000000000000e+00  -1.3068324710785973e-03 9.0203105429721004e-04 0.0000000000000000e+00  -1.4565714774574783e-03 9.3762607047703523e-04 0.0000000000000000e+00  -1.6100358786582383e-03 9.6851168898105713e-04 0.0000000000000000e+00  -1.7641553694321803e-03 9.9407607881830669e-04 0.0000000000000000e+00  -1.9138831491403298e-03 1.0137392861808777e-03 0.0000000000000000e+00  -2.0507223840443927e-03 1.0269689690624393e-03 0.0000000000000000e+00  -2.1601634628123181e-03 1.0332970428333565e-03 0.0000000000000000e+00  -2.2173174970752762e-03 1.0323352500742958e-03 0.0000000000000000e+00  -2.1796639309706487e-03 1.0237856405657020e-03 