<?xml version="1.0"?>
<VTKFile type="UnstructuredGrid"  version="0.1"  >
<UnstructuredGrid>
<Piece  NumberOfPoints="1681" NumberOfCells="3200">
<Points>
<DataArray  type="Float64"  NumberOfComponents="3"  format="ascii">0 0 0  0.5 0 0  1 0 0  1.5 0 0  2 0 0  2.5 0 0  3 0 0  3.5 0 0  4 0 0  4.5 0 0  5 0 0  5.5 0 0  6 0 0  6.5 0 0  7 0 0  7.5 0 0  8 0 0  8.5 0 0  9 0 0  9.5 0 0  10 0 0  10.5 0 0  11 0 0  11.5 0 0  12 0 0  12.5 0 0  13 0 0  13.5 0 0  14 0 0  14.5 0 0  15 0 0  15.5 0 0  16 0 0  16.5 0 0  17 0 0  17.5 0 0  18 0 0  18.5 0 0  19 0 0  19.5 0 0  20 0 0  0 0.5 0  0.5 0.5 0  1 0.5 0  1.5 0.5 0  2 0.5 0  2.5 0.5 0  3 0.5 0  3.5 0.5 0  4 0.5 0  4.5 0.5 0  5 0.5 0  5.5 0.5 0  6 0.5 0  6.5 0.5 0  7 0.5 0  7.5 0.5 0  8 0.5 0  8.5 0.5 0  9 0.5 0  9.5 0.5 0  10 0.5 0  10.5 0.5 0  11 0.5 0  11.5 0.5 0  12 0.5 0  12.5 0.5 0  13 0.5 0  13.5 0.5 0  14 0.5 0  14.5 0.5 0  15 0.5 0  15.5 0.5 0  16 0.5 0  16.5 0.5 0  17 0.5 0  17.5 0.5 0  18 0.5 0  18.5 0.5 0  19 0.5 0  19.5 0.5 0  20 0.5 0  0 1 0  0.5 1 0  1 1 0  1.5 1 0  2 1 0  2.5 1 0  3 1 0  3.5 1 0  4 1 0  4.5 1 0  5 1 0  5.5 1 0  6 1 0  6.5 1 0  7 1 0  7.5 1 0  8 1 0  8.5 1 0  9 1 0  9.5 1 0  10 1 0  10.5 1 0  11 1 0  11.5 1 0  12 1 0  12.5 1 0  13 1 0  13.5 1 0  14 1 0  14.5 1 0  15 1 0  15.5 1 0  16 1 0  16.5 1 0  17 1 0  17.5 1 0  18 1 0  18.5 1 0  19 1 0  19.5 1 0  20 1 0  0 1.5 0  0.5 1.5 0  1 1.5 0  1.5 1.5 0  2 1.5 0  2.5 1.5 0  3 1.5 0  3.5 1.5 0  4 1.5 0  4.5 1.5 0  5 1.5 0  5.5 1.5 0  6 1.5 0  6.5 1.5 0  7 1.5 0  7.5 1.5 0  8 1.5 0  8.5 1.5 0  9 1.5 0  9.5 1.5 0  10 1.5 0  10.5 1.5 0  11 1.5 0  11.5 1.5 0  12 1.5 0  12.5 1.5 0  13 1.5 0  13.5 1.5 0  14 1.5 0  14.5 1.5 0  15 1.5 0  15.5 1.5 0  16 1.5 0  16.5 1.5 0  17 1.5 0  17.5 1.5 0  18 1.5 0  18.5 1.5 0  19 1.5 0  19.5 1.5 0  20 1.5 0  0 2 0  0.5 2 0  1 2 0  1.5 2 0  2 2 0  2.5 2 0  3 2 0  3.5 2 0  4 2 0  4.5 2 0  5 2 0  5.5 2 0  6 2 0  6.5 2 0  7 2 0  7.5 2 0  8 2 0  8.5 2 0  9 2 0  9.5 2 0  10 2 0  10.5 2 0  11 2 0  11.5 2 0  12 2 0  12.5 2 0  13 2 0  13.5 2 0  14 2 0  14.5 2 0  15 2 0  15.5 2 0  16 2 0  16.5 2 0  17 2 0  17.5 2 0  18 2 0  18.5 2 0  19 2 0  19.5 2 0  20 2 0  0 2.5 0  0.5 2.5 0  1 2.5 0  1.5 2.5 0  2 2.5 0  2.5 2.5 0  3 2.5 0  3.5 2.5 0  4 2.5 0  4.5 2.5 0  5 2.5 0  5.5 2.5 0  6 2.5 0  6.5 2.5 0  7 2.5 0  7.5 2.5 0  8 2.5 0  8.5 2.5 0  9 2.5 0  9.5 2.5 0  10 2.5 0  10.5 2.5 0  11 2.5 0  11.5 2.5 0  12 2.5 0  12.5 2.5 0  13 2.5 0  13.5 2.5 0  14 2.5 0  14.5 2.5 0  15 2.5 0  15.5 2.5 0  16 2.5 0  16.5 2.5 0  17 2.5 0  17.5 2.5 0  18 2.5 0  18.5 2.5 0  19 2.5 0  19.5 2.5 0  20 2.5 0  0 3 0  0.5 3 0  1 3 0  1.5 3 0  2 3 0  2.5 3 0  3 3 0  3.5 3 0  4 3 0  4.5 3 0  5 3 0  5.5 3 0  6 3 0  6.5 3 0  7 3 0  7.5 3 0  8 3 0  8.5 3 0  9 3 0  9.5 3 0  10 3 0  10.5 3 0  11 3 0  11.5 3 0  12 3 0  12.5 3 0  13 3 0  13.5 3 0  14 3 0  14.5 3 0  15 3 0  15.5 3 0  16 3 0  16.5 3 0  17 3 0  17.5 3 0  18 3 0  18.5 3 0  19 3 0  19.5 3 0  20 3 0  0 3.5 0  0.5 3.5 0  1 3.5 0  1.5 3.5 0  2 3.5 0  2.5 3.5 0  3 3.5 0  3.5 3.5 0  4 3.5 0  4.5 3.5 0  5 3.5 0  5.5 3.5 0  6 3.5 0  6.5 3.5 0  7 3.5 0  7.5 3.5 0  8 3.5 0  8.5 3.5 0  9 3.5 0  9.5 3.5 0  10 3.5 0  10.5 3.5 0  11 3.5 0  11.5 3.5 0  12 3.5 0  12.5 3.5 0  13 3.5 0  13.5 3.5 0  14 3.5 0  14.5 3.5 0  15 3.5 0  15.5 3.5 0  16 3.5 0  16.5 3.5 0  17 3.5 0  17.5 3.5 0  18 3.5 0  18.5 3.5 0  19 3.5 0  19.5 3.5 0  20 3.5 0  0 4 0  0.5 4 0  1 4 0  1.5 4 0  2 4 0  2.5 4 0  3 4 0  3.5 4 0  4 4 0  4.5 4 0  5 4 0  5.5 4 0  6 4 0  6.5 4 0  7 4 0  7.5 4 0  8 4 0  8.5 4 0  9 4 0  9.5 4 0  10 4 0  10.5 4 0  11 4 0  11.5 4 0  12 4 0  12.5 4 0  13 4 0  13.5 4 0  14 4 0  14.5 4 0  15 4 0  15.5 4 0  16 4 0  16.5 4 0  17 4 0  17.5 4 0  18 4 0  18.5 4 0  19 4 0  19.5 4 0  20 4 0  0 4.5 0  0.5 4.5 0  1 4.5 0  1.5 4.5 0  2 4.5 0  2.5 4.5 0  3 4.5 0  3.5 4.5 0  4 4.5 0  4.5 4.5 0  5 4.5 0  5.5 4.5 0  6 4.5 0  6.5 4.5 0  7 4.5 0  7.5 4.5 0  8 4.5 0  8.5 4.5 0  9 4.5 0  9.5 4.5 0  10 4.5 0  10.5 4.5 0  11 4.5 0  11.5 4.5 0  12 4.5 0  12.5 4.5 0  13 4.5 0  13.5 4.5 0  14 4.5 0  14.5 4.5 0  15 4.5 0  15.5 4.5 0  16 4.5 0  16.5 4.5 0  17 4.5 0  17.5 4.5 0  18 4.5 0  18.5 4.5 0  19 4.5 0  19.5 4.5 0  20 4.5 0  0 5 0  0.5 5 0  1 5 0  1.5 5 0  2 5 0  2.5 5 0  3 5 0  3.5 5 0  4 5 0  4.5 5 0  5 5 0  5.5 5 0  6 5 0  6.5 5 0  7 5 0  7.5 5 0  8 5 0  8.5 5 0  9 5 0  9.5 5 0  10 5 0  10.5 5 0  11 5 0  11.5 5 0  12 5 0  12.5 5 0  13 5 0  13.5 5 0  14 5 0  14.5 5 0  15 5 0  15.5 5 0  16 5 0  16.5 5 0  17 5 0  17.5 5 0  18 5 0  18.5 5 0  19 5 0  19.5 5 0  20 5 0  0 5.5 0  0.5 5.5 0  1 5.5 0  1.5 5.5 0  2 5.5 0  2.5 5.5 0  3 5.5 0  3.5 5.5 0  4 5.5 0  4.5 5.5 0  5 5.5 0  5.5 5.5 0  6 5.5 0  6.5 5.5 0  7 5.5 0  7.5 5.5 0  8 5.5 0  8.5 5.5 0  9 5.5 0  9.5 5.5 0  10 5.5 0  10.5 5.5 0  11 5.5 0  11.5 5.5 0  12 5.5 0  12.5 5.5 0  13 5.5 0  13.5 5.5 0  14 5.5 0  14.5 5.5 0  15 5.5 0  15.5 5.5 0  16 5.5 0  16.5 5.5 0  17 5.5 0  17.5 5.5 0  18 5.5 0  18.5 5.5 0  19 5.5 0  19.5 5.5 0  20 5.5 0  0 6 0  0.5 6 0  1 6 0  1.5 6 0  2 6 0  2.5 6 0  3 6 0  3.5 6 0  4 6 0  4.5 6 0  5 6 0  5.5 6 0  6 6 0  6.5 6 0  7 6 0  7.5 6 0  8 6 0  8.5 6 0  9 6 0  9.5 6 0  10 6 0  10.5 6 0  11 6 0  11.5 6 0  12 6 0  12.5 6 0  13 6 0  13.5 6 0  14 6 0  14.5 6 0  15 6 0  15.5 6 0  16 6 0  16.5 6 0  17 6 0  17.5 6 0  18 6 0  18.5 6 0  19 6 0  19.5 6 0  20 6 0  0 6.5 0  0.5 6.5 0  1 6.5 0  1.5 6.5 0  2 6.5 0  2.5 6.5 0  3 6.5 0  3.5 6.5 0  4 6.5 0  4.5 6.5 0  5 6.5 0  5.5 6.5 0  6 6.5 0  6.5 6.5 0  7 6.5 0  7.5 6.5 0  8 6.5 0  8.5 6.5 0  9 6.5 0  9.5 6.5 0  10 6.5 0  10.5 6.5 0  11 6.5 0  11.5 6.5 0  12 6.5 0  12.5 6.5 0  13 6.5 0  13.5 6.5 0  14 6.5 0  14.5 6.5 0  15 6.5 0  15.5 6.5 0  16 6.5 0  16.5 6.5 0  17 6.5 0  17.5 6.5 0  18 6.5 0  18.5 6.5 0  19 6.5 0  19.5 6.5 0  20 6.5 0  0 7 0  0.5 7 0  1 7 0  1.5 7 0  2 7 0  2.5 7 0  3 7 0  3.5 7 0  4 7 0  4.5 7 0  5 7 0  5.5 7 0  6 7 0  6.5 7 0  7 7 0  7.5 7 0  8 7 0  8.5 7 0  9 7 0  9.5 7 0  10 7 0  10.5 7 0  11 7 0  11.5 7 0  12 7 0  12.5 7 0  13 7 0  13.5 7 0  14 7 0  14.5 7 0  15 7 0  15.5 7 0  16 7 0  16.5 7 0  17 7 0  17.5 7 0  18 7 0  18.5 7 0  19 7 0  19.5 7 0  20 7 0  0 7.5 0  0.5 7.5 0  1 7.5 0  1.5 7.5 0  2 7.5 0  2.5 7.5 0  3 7.5 0  3.5 7.5 0  4 7.5 0  4.5 7.5 0  5 7.5 0  5.5 7.5 0  6 7.5 0  6.5 7.5 0  7 7.5 0  7.5 7.5 0  8 7.5 0  8.5 7.5 0  9 7.5 0  9.5 7.5 0  10 7.5 0  10.5 7.5 0  11 7.5 0  11.5 7.5 0  12 7.5 0  12.5 7.5 0  13 7.5 0  13.5 7.5 0  14 7.5 0  14.5 7.5 0  15 7.5 0  15.5 7.5 0  16 7.5 0  16.5 7.5 0  17 7.5 0  17.5 7.5 0  18 7.5 0  18.5 7.5 0  19 7.5 0  19.5 7.5 0  20 7.5 0  0 8 0  0.5 8 0  1 8 0  1.5 8 0  2 8 0  2.5 8 0  3 8 0  3.5 8 0  4 8 0  4.5 8 0  5 8 0  5.5 8 0  6 8 0  6.5 8 0  7 8 0  7.5 8 0  8 8 0  8.5 8 0  9 8 0  9.5 8 0  10 8 0  10.5 8 0  11 8 0  11.5 8 0  12 8 0  12.5 8 0  13 8 0  13.5 8 0  14 8 0  14.5 8 0  15 8 0  15.5 8 0  16 8 0  16.5 8 0  17 8 0  17.5 8 0  18 8 0  18.5 8 0  19 8 0  19.5 8 0  20 8 0  0 8.5 0  0.5 8.5 0  1 8.5 0  1.5 8.5 0  2 8.5 0  2.5 8.5 0  3 8.5 0  3.5 8.5 0  4 8.5 0  4.5 8.5 0  5 8.5 0  5.5 8.5 0  6 8.5 0  6.5 8.5 0  7 8.5 0  7.5 8.5 0  8 8.5 0  8.5 8.5 0  9 8.5 0  9.5 8.5 0  10 8.5 0  10.5 8.5 0  11 8.5 0  11.5 8.5 0  12 8.5 0  12.5 8.5 0  13 8.5 0  13.5 8.5 0  14 8.5 0  14.5 8.5 0  15 8.5 0  15.5 8.5 0  16 8.5 0  16.5 8.5 0  17 8.5 0  17.5 8.5 0  18 8.5 0  18.5 8.5 0  19 8.5 0  19.5 8.5 0  20 8.5 0  0 9 0  0.5 9 0  1 9 0  1.5 9 0  2 9 0  2.5 9 0  3 9 0  3.5 9 0  4 9 0  4.5 9 0  5 9 0  5.5 9 0  6 9 0  6.5 9 0  7 9 0  7.5 9 0  8 9 0  8.5 9 0  9 9 0  9.5 9 0  10 9 0  10.5 9 0  11 9 0  11.5 9 0  12 9 0  12.5 9 0  13 9 0  13.5 9 0  14 9 0  14.5 9 0  15 9 0  15.5 9 0  16 9 0  16.5 9 0  17 9 0  17.5 9 0  18 9 0  18.5 9 0  19 9 0  19.5 9 0  20 9 0  0 9.5 0  0.5 9.5 0  1 9.5 0  1.5 9.5 0  2 9.5 0  2.5 9.5 0  3 9.5 0  3.5 9.5 0  4 9.5 0  4.5 9.5 0  5 9.5 0  5.5 9.5 0  6 9.5 0  6.5 9.5 0  7 9.5 0  7.5 9.5 0  8 9.5 0  8.5 9.5 0  9 9.5 0  9.5 9.5 0  10 9.5 0  10.5 9.5 0  11 9.5 0  11.5 9.5 0  12 9.5 0  12.5 9.5 0  13 9.5 0  13.5 9.5 0  14 9.5 0  14.5 9.5 0  15 9.5 0  15.5 9.5 0  16 9.5 0  16.5 9.5 0  17 9.5 0  17.5 9.5 0  18 9.5 0  18.5 9.5 0  19 9.5 0  19.5 9.5 0  20 9.5 0  0 10 0  0.5 10 0  1 10 0  1.5 10 0  2 10 0  2.5 10 0  3 10 0  3.5 10 0  4 10 0  4.5 10 0  5 10 0  5.5 10 0  6 10 0  6.5 10 0  7 10 0  7.5 10 0  8 10 0  8.5 10 0  9 10 0  9.5 10 0  10 10 0  10.5 10 0  11 10 0  11.5 10 0  12 10 0  12.5 10 0  13 10 0  13.5 10 0  14 10 0  14.5 10 0  15 10 0  15.5 10 0  16 10 0  16.5 10 0  17 10 0  17.5 10 0  18 10 0  18.5 10 0  19 10 0  19.5 10 0  20 10 0  0 10.5 0  0.5 10.5 0  1 10.5 0  1.5 10.5 0  2 10.5 0  2.5 10.5 0  3 10.5 0  3.5 10.5 0  4 10.5 0  4.5 10.5 0  5 10.5 0  5.5 10.5 0  6 10.5 0  6.5 10.5 0  7 10.5 0  7.5 10.5 0  8 10.5 0  8.5 10.5 0  9 10.5 0  9.5 10.5 0  10 10.5 0  10.5 10.5 0  11 10.5 0  11.5 10.5 0  12 10.5 0  12.5 10.5 0  13 10.5 0  13.5 10.5 0  14 10.5 0  14.5 10.5 0  15 10.5 0  15.5 10.5 0  16 10.5 0  16.5 10.5 0  17 10.5 0  17.5 10.5 0  18 10.5 0  18.5 10.5 0  19 10.5 0  19.5 10.5 0  20 10.5 0  0 11 0  0.5 11 0  1 11 0  1.5 11 0  2 11 0  2.5 11 0  3 11 0  3.5 11 0  4 11 0  4.5 11 0  5 11 0  5.5 11 0  6 11 0  6.5 11 0  7 11 0  7.5 11 0  8 11 0  8.5 11 0  9 11 0  9.5 11 0  10 11 0  10.5 11 0  11 11 0  11.5 11 0  12 11 0  12.5 11 0  13 11 0  13.5 11 0  14 11 0  14.5 11 0  15 11 0  15.5 11 0  16 11 0  16.5 11 0  17 11 0  17.5 11 0  18 11 0  18.5 11 0  19 11 0  19.5 11 0  20 11 0  0 11.5 0  0.5 11.5 0  1 11.5 0  1.5 11.5 0  2 11.5 0  2.5 11.5 0  3 11.5 0  3.5 11.5 0  4 11.5 0  4.5 11.5 0  5 11.5 0  5.5 11.5 0  6 11.5 0  6.5 11.5 0  7 11.5 0  7.5 11.5 0  8 11.5 0  8.5 11.5 0  9 11.5 0  9.5 11.5 0  10 11.5 0  10.5 11.5 0  11 11.5 0  11.5 11.5 0  12 11.5 0  12.5 11.5 0  13 11.5 0  13.5 11.5 0  14 11.5 0  14.5 11.5 0  15 11.5 0  15.5 11.5 0  16 11.5 0  16.5 11.5 0  17 11.5 0  17.5 11.5 0  18 11.5 0  18.5 11.5 0  19 11.5 0  19.5 11.5 0  20 11.5 0  0 12 0  0.5 12 0  1 12 0  1.5 12 0  2 12 0  2.5 12 0  3 12 0  3.5 12 0  4 12 0  4.5 12 0  5 12 0  5.5 12 0  6 12 0  6.5 12 0  7 12 0  7.5 12 0  8 12 0  8.5 12 0  9 12 0  9.5 12 0  10 12 0  10.5 12 0  11 12 0  11.5 12 0  12 12 0  12.5 12 0  13 12 0  13.5 12 0  14 12 0  14.5 12 0  
[...]
<PointData  Vectors="f_5173-0"> 
<DataArray  type="Float64"  Name="f_5173-0"  NumberOfComponents="3" format="ascii">0.0000000000000000e+00 0.0000000000000000e+00 0.0000000000000000e+00  -1.0640655798684640e-07 0.0000000000000000e+00 0.0000000000000000e+00  -6.0785928650100299e-07 0.0000000000000000e+00 0.0000000000000000e+00  -1.9700411614476030e-06 0.0000000000000000e+00 0.0000000000000000e+00  -4.6172472781184823e-06 0.0000000000000000e+00 0.0000000000000000e+00  -8.9676884331655234e-06 0.0000000000000000e+00 0.0000000000000000e+00  -1.5432825770019804e-05 0.0000000000000000e+00 0.0000000000000000e+00  -2.4414812421922935e-05 0.0000000000000000e+00 0.0000000000000000e+00  -3.6304027311850877e-05 0.0000000000000000e+00 0.0000000000000000e+00  -5.1476595253821175e-05 0.0000000000000000e+00 0.0000000000000000e+00  -7.0291787000608300e-05 0.0000000000000000e+00 0.0000000000000000e+00  -9.3089250425225440e-05 0.0000000000000000e+00 0.0000000000000000e+00  -1.2018605126212309e-04 0.0000000000000000e+00 0.0000000000000000e+00  -1.5187351534406534e-04 0.0000000000000000e+00 0.0000000000000000e+00  -1.8841387350200062e-04 0.0000000000000000e+00 0.0000000000000000e+00  -2.3003671681896479e-04 0.0000000000000000e+00 0.0000000000000000e+00  -2.7693527424143096e-04 0.0000000000000000e+00 0.0000000000000000e+00  -3.2926252394128243e-04 0.0000000000000000e+00 0.0000000000000000e+00  -3.8712713981488365e-04 0.0000000000000000e+00 0.0000000000000000e+00  -4.5058924538575462e-04 0.0000000000000000e+00 0.0000000000000000e+00  -5.1965588243914991e-04 0.0000000000000000e+00 0.0000000000000000e+00  -5.9427596706336733e-04 0.0000000000000000e+00 0.0000000000000000e+00  -6.7433424031892010e-04 0.0000000000000000e+00 0.0000000000000000e+00  -7.5964320697440360e-04 0.0000000000000000e+00 0.0000000000000000e+00  -8.4993107393597004e-04 0.0000000000000000e+00 0.0000000000000000e+00  -9.4482183557682007e-04 0.0000000000000000e+00 0.0000000000000000e+00  -1.0438001301698618e-03 0.0000000000000000e+00 0.0000000000000000e+00  -1.1461468597753618e-03 0.0000000000000000e+00 0.0000000000000000e+00  -1.2508191414600522e-03 0.0000000000000000e+00 0.0000000000000000e+00  -1.3562250205328748e-03 0.0000000000000000e+00 0.0000000000000000e+00  -1.4598006547004517e-03 0.0000000000000000e+00 0.0000000000000000e+00  -1.5572197400759425e-03 0.0000000000000000e+00 0.0000000000000000e+00  -1.6409252271385017e-03 0.0000000000000000e+00 0.0000000000000000e+00  -1.6974292437735587e-03 0.0000000000000000e+00 0.0000000000000000e+00  -1.7024168977317262e-03 0.0000000000000000e+00 0.0000000000000000e+00  -1.6120417012378439e-03 0.0000000000000000e+00 0.0000000000000000e+00  -1.3478808477064307e-03 0.0000000000000000e+00 0.0000000000000000e+00  -7.7196709916156733e-04 0.0000000000000000e+00 0.0000000000000000e+00  3.5229868921830452e-04 0.0000000000000000e+00 0.0000000000000000e+00  2.4167014914764796e-03 0.0000000000000000e+00 0.0000000000000000e+00  6.0460644770087809e-03 0.0000000000000000e+00 0.0000000000000000e+00  0.0000000000000000e+00 -1.0640655679855615e-07 0.0000000000000000e+00  1.5020108892067916e-07 1.5020108897651465e-07 0.0000000000000000e+00  -1.4668633835146489e-07 8.1084083340986149e-07 0.0000000000000000e+00  -1.2979958351853204e-06 1.8851461932544169e-06 0.0000000000000000e+00  -3.7314195221479206e-06 3.3785716436450680e-06 0.0000000000000000e+00  -7.8675344855621488e-06 5.2877560218575658e-06 0.0000000000000000e+00  -1.4118576117185241e-05 7.6048229013733480e-06 0.0000000000000000e+00  -2.2887043097954685e-05 1.0319095432047067e-05 0.0000000000000000e+00  -3.4563631774220159e-05 1.3417478704983839e-05 0.0000000000000000e+00  -4.9524866475901637e-05 1.6884412885980671e-05 0.0000000000000000e+00  -6.8130529034760227e-05 2.0701704768308709e-05 0.0000000000000000e+00  -9.0720899124933333e-05 2.4848326651984074e-05 0.0000000000000000e+00  -1.1761379870676498e-04 2.9300208565328457e-05 0.0000000000000000e+00  -1.4910143567274699e-04 3.4030034326807548e-05 0.0000000000000000e+00  -1.8544704764918054e-04 3.9007049390940036e-05 0.0000000000000000e+00  -2.2688135314972597e-04 4.4196888654120852e-05 0.0000000000000000e+00  -2.7359882158006050e-04 4.9561433231134237e-05 0.0000000000000000e+00  -3.2575377317263835e-04 5.5058705718046203e-05 0.0000000000000000e+00  -3.8345631025554387e-04 6.0642813301512467e-05 0.0000000000000000e+00  -4.4676805284461622e-04 6.6263947067933855e-05 0.0000000000000000e+00  -5.1569758708230125e-04 7.1868443592934314e-05 0.0000000000000000e+00  -5.9019540174233488e-04 7.7398910599981317e-05 0.0000000000000000e+00  -6.7014782403107618e-04 8.2794411834672126e-05 0.0000000000000000e+00  -7.5536895431473864e-04 8.7990695995042716e-05 0.0000000000000000e+00  -8.4558862051199734e-04 9.2920439806232243e-05 0.0000000000000000e+00  -9.4043251185264723e-04 9.7513455637492918e-05 0.0000000000000000e+00  -1.0393871312662248e-03 1.0169678969011396e-04 0.0000000000000000e+00  -1.1417355726939713e-03 1.0539461315965197e-04 0.0000000000000000e+00  -1.2464376917969049e-03 1.0852780007270619e-04 0.0000000000000000e+00  -1.3519050574436356e-03 1.1101312833070991e-04 0.0000000000000000e+00  -1.4555782360032763e-03 1.1276221485509258e-04 0.0000000000000000e+00  -1.5531357649923110e-03 1.1368075955647987e-04 0.0000000000000000e+00  -1.6370239255119074e-03 1.1366969940973287e-04 0.0000000000000000e+00  -1.6937513505766546e-03 1.1263182855678915e-04 0.0000000000000000e+00  -1.6989808850179796e-03 1.1049049224646605e-04 0.0000000000000000e+00  -1.6088020153796718e-03 1.0722995342408407e-04 0.0000000000000000e+00  -1.3446491559741917e-03 1.0296423363325646e-04 0.0000000000000000e+00  -7.6828905979964605e-04 9.8014441838925500e-05 0.0000000000000000e+00  3.5728276352210275e-04 9.2873607910826960e-05 0.0000000000000000e+00  2.4241110870019543e-03 8.7613706775298649e-05 0.0000000000000000e+00  6.0516973104230180e-03 7.9243206909240203e-05 0.0000000000000000e+00  0.0000000000000000e+00 -6.0785928904417113e-07 0.0000000000000000e+00  8.1084083558332759e-07 -1.4668633877500990e-07 0.0000000000000000e+00  1.1615472164208167e-06 1.1615472142983210e-06 0.0000000000000000e+00  6.5364136864309527e-07 3.3140931937208610e-06 0.0000000000000000e+00  -1.1364986224726845e-06 6.3067117701897119e-06 0.0000000000000000e+00  -4.6290952164057261e-06 1.0129301374374189e-05 0.0000000000000000e+00  -1.0237064644187498e-05 1.4766403619748933e-05 0.0000000000000000e+00  -1.8363786065726647e-05 2.0197469236200202e-05 0.0000000000000000e+00  -2.9400978767961624e-05 2.6396949105009831e-05 0.0000000000000000e+00  -4.3726408192341494e-05 3.3334183342548029e-05 0.0000000000000000e+00  -6.1701382954262551e-05 4.0973140767162414e-05 0.0000000000000000e+00  -8.3668039976018033e-05 4.9272072007016776e-05 0.0000000000000000e+00  -1.0994641616592757e-04 5.8183122146530265e-05 0.0000000000000000e+00  -1.4083130601047722e-04 6.7651934094278983e-05 0.0000000000000000e+00  -1.7658890785883890e-04 7.7617266128980126e-05 0.0000000000000000e+00  -2.1745326628035177e-04 8.8010644622752359e-05 0.0000000000000000e+00  -2.6362252143749895e-04 9.8756072404647491e-05 0.0000000000000000e+00  -3.1525497620938281e-04 1.0976981351709779e-04 0.0000000000000000e+00  -3.7246498251765087e-04 1.2096027477879566e-04 0.0000000000000000e+00  -4.3531862096766436e-04 1.3222800326504578e-04 0.0000000000000000e+00  -5.0382908503119781e-04 1.4346581526762328e-04 0.0000000000000000e+00  -5.7795154980617351e-04 1.5455906642341440e-04 0.0000000000000000e+00  -6.5757704430544517e-04 1.6538606303673347e-04 0.0000000000000000e+00  -7.4252433820227429e-04 1.7581860084742688e-04 0.0000000000000000e+00  -8.3252787836602695e-04 1.8572259929367220e-04 0.0000000000000000e+00  -9.2721795155512878e-04 1.9495877777834822e-04 0.0000000000000000e+00  -1.0260857245914027e-03 2.0338330068956850e-04 0.0000000000000000e+00  -1.1284191605183990e-03 2.1084831273264444e-04 0.0000000000000000e+00  -1.2331833146466389e-03 2.1720232465785108e-04 0.0000000000000000e+00  -1.3387952010561327e-03 2.2229055060953406e-04 0.0000000000000000e+00  -1.4427003068029746e-03 2.2595565045212734e-04 0.0000000000000000e+00  -1.5405791083006244e-03 2.2804006579870217e-04 0.0000000000000000e+00  -1.6248708154839634e-03 2.2839246381381513e-04 0.0000000000000000e+00  -1.6820553189227641e-03 2.2688276231433470e-04 0.0000000000000000e+00  -1.6877219459168857e-03 2.2343202134735761e-04 0.0000000000000000e+00  -1.5978068288978167e-03 2.1806181839661672e-04 0.0000000000000000e+00  -1.3334747838299197e-03 2.1095312258621873e-04 0.0000000000000000e+00  -7.5611587128718110e-04 2.0245626541783165e-04 0.0000000000000000e+00  3.7156673288181664e-04 1.9287729102388627e-04 0.0000000000000000e+00  2.4410805195419108e-03 1.8166245128818848e-04 0.0000000000000000e+00  6.0683166170223618e-03 1.6550764341583500e-04 0.0000000000000000e+00  0.0000000000000000e+00 -1.9700411659772782e-06 0.0000000000000000e+00  1.8851461926682273e-06 -1.2979958356074593e-06 0.0000000000000000e+00  3.3140931920385350e-06 6.5364136526863734e-07 0.0000000000000000e+00  3.8795317706242613e-06 3.8795317732598458e-06 0.0000000000000000e+00  3.1613526816611055e-06 8.3690744742550547e-06 0.0000000000000000e+00  7.3996697803703416e-07 1.4105227876456823e-05 0.0000000000000000e+00  -3.7979144853338420e-06 2.1064087822641595e-05 0.0000000000000000e+00  -1.0856651830125914e-05 2.9214866516279687e-05 0.0000000000000000e+00  -2.0829441223068894e-05 3.8519662250679624e-05 0.0000000000000000e+00  -3.4096013583268028e-05 4.8933066682244660e-05 0.0000000000000000e+00  -5.1020165931933696e-05 6.0401672027258996e-05 0.0000000000000000e+00  -7.1947088816949313e-05 7.2863513387601836e-05 0.0000000000000000e+00  -9.7200473399639535e-05 8.6247474180670738e-05 0.0000000000000000e+00  -1.2707939124770900e-04 1.0047268238682678e-04 0.0000000000000000e+00  -1.6185494654747746e-04 1.1544792622451685e-04 0.0000000000000000e+00  -2.0176670595357983e-04 1.3107111927947472e-04 0.0000000000000000e+00  -2.4701891528794564e-04 1.4722884647884788e-04 0.0000000000000000e+00  -2.9777651247266085e-04 1.6379602360610984e-04 0.0000000000000000e+00  -3.5416093758843507e-04 1.8063570343657920e-04 0.0000000000000000e+00  -4.1624571484260133e-04 1.9759906068074289e-04 0.0000000000000000e+00  -4.8405172005149509e-04 2.1452558474229221e-04 0.0000000000000000e+00  -5.5754191850976265e-04 2.3124350336188300e-04 0.0000000000000000e+00  -6.3661509958712239e-04 2.4757045081263984e-04 0.0000000000000000e+00  -7.2109762895953557e-04 2.6331438128826128e-04 0.0000000000000000e+00  -8.1073126483337775e-04 2.7827471246183824e-04 0.0000000000000000e+00  -9.0515322164474467e-04 2.9224366929848802e-04 0.0000000000000000e+00  -1.0038611248824585e-03 3.0500779191370452e-04 0.0000000000000000e+00  -1.1061488091166530e-03 3.1634959096902567e-04 0.0000000000000000e+00  -1.2109863318904947e-03 3.2604941177148829e-04 0.0000000000000000e+00  -1.3167940950327037e-03 3.3388775903531929e-04 0.0000000000000000e+00  -1.4210175518775720e-03 3.3964871855792904e-04 0.0000000000000000e+00  -1.5193297857107393e-03 3.4312577484205402e-04 0.0000000000000000e+00  -1.6041475357246899e-03 3.4413225746626042e-04 0.0000000000000000e+00  -1.6618997126091085e-03 3.4251947417364014e-04 0.0000000000000000e+00  -1.6680763871650761e-03 3.3820490548608470e-04 0.0000000000000000e+00  -1.5784454648238963e-03 3.3120705477777989e-04 0.0000000000000000e+00  -1.3139349192083285e-03 3.2166561021849754e-04 0.0000000000000000e+00  -7.3570673018921956e-04 3.0978621312633808e-04 0.0000000000000000e+00  3.9349615190734213e-04 2.9558957870777860e-04 0.0000000000000000e+00  2.4643150524667314e-03 2.7832392264663647e-04 0.0000000000000000e+00  6.0902976978828927e-03 2.5566471293125034e-04 0.0000000000000000e+00  0.0000000000000000e+00 -4.6172472786776130e-06 0.0000000000000000e+00  3.3785716416911629e-06 -3.7314195226172387e-06 0.0000000000000000e+00  6.3067117693380601e-06 -1.1364986236721054e-06 0.0000000000000000e+00  8.3690744715595469e-06 3.1613526844110967e-06 0.0000000000000000e+00  9.1466962312015079e-06 9.1466962323835559e-06 0.0000000000000000e+00  8.2203816118538833e-06 1.6796145421895977e-05 0.0000000000000000e+00  5.1763027359434983e-06 2.6077844164788854e-05 0.0000000000000000e+00  -3.9113178171915293e-07 3.6951168433700221e-05 0.0000000000000000e+00  -8.8770107291303255e-06 4.9366281319809619e-05 0.0000000000000000e+00  -2.0663662196507506e-05 6.3263533050737387e-05 0.0000000000000000e+00  -3.6118241663115587e-05 7.8572746728060034e-05 0.0000000000000000e+00  -5.5590113739547431e-05 9.5212429552726961e-05 0.0000000000000000e+00  -7.9408003741284812e-05 1.1308894344179066e-04 0.0000000000000000e+00  -1.0787690650741589e-04 1.3209566742455596e-04 0.0000000000000000e+00  -1.4127474734066531e-04 1.5211218629427684e-04 0.0000000000000000e+00  -1.7984879611159955e-04 1.7300354317421876e-04 0.0000000000000000e+00  -2.2381184012201176e-04 1.9461959750462037e-04 0.0000000000000000e+00  -2.7333812212066376e-04 2.1679453299284457e-04 0.0000000000000000e+00  -3.2855904230795783e-04 2.3934656229887314e-04 0.0000000000000000e+00  -3.8955859835140133e-04 2.6207787571460656e-04 0.0000000000000000e+00  -4.5636847798123295e-04 2.8477487943377294e-04 0.0000000000000000e+00  -5.2896259201622544e-04 3.0720876446906932e-04 0.0000000000000000e+00  -6.0725057916630372e-04 3.2913643968590455e-04 0.0000000000000000e+00  -6.9106930959242135e-04 3.5030185204409068e-04 0.0000000000000000e+00  -7.8017043798583809e-04 3.7043770563211675e-04 0.0000000000000000e+00  -8.7420018590745154e-04 3.8926758274711608e-04 0.0000000000000000e+00  -9.7266397260268580e-04 4.0650847356743763e-04 0.0000000000000000e+00  -1.0748617773191449e-03 4.2187375160303054e-04 0.0000000000000000e+00  -1.1797674527601971e-03 4.3507671492299353e-04 0.0000000000000000e+00  -1.2858015852407682e-03 4.4583498246313514e-04 0.0000000000000000e+00  -1.3904038732763674e-03 4.5387632139332144e-04 0.0000000000000000e+00  -1.4892315649556668e-03 4.5894687440262334e-04 0.0000000000000000e+00  -1.5746687086939971e-03 4.6082309381379296e-04 0.0000000000000000e+00  -1.6330850570853740e-03 4.5932844515410033e-04 0.0000000000000000e+00  -1.6398748936069163e-03 4.5435387072953140e-04 0.0000000000000000e+00  -1.5506716051460667e-03 4.4587482493565485e-04 0.0000000000000000e+00  -1.2862564355850877e-03 4.3394458871195979e-04 0.0000000000000000e+00  -7.0772273318772813e-04 4.1862354899236868e-04 0.0000000000000000e+00  4.2199097066178138e-04 3.9979022638802938e-04 0.0000000000000000e+00  2.4928372031549572e-03 3.7681919693472870e-04 0.0000000000000000e+00  6.1172996747523274e-03 3.4830599414947854e-04 0.0000000000000000e+00  0.0000000000000000e+00 -8.9676884306912588e-06 0.0000000000000000e+00  5.2877560225113965e-06 -7.8675344861270655e-06 0.0000000000000000e+00  1.0129301373707339e-05 -4.6290952180194442e-06 0.0000000000000000e+00  1.4105227875283341e-05 7.3996697901661198e-07 0.0000000000000000e+00  1.6796145422797295e-05 8.2203816123941175e-06 0.0000000000000000e+00  1.7783018927751682e-05 1.7783018928563018e-05 0.0000000000000000e+00  1.6651378793877233e-05 2.9388655989440869e-05 0.0000000000000000e+00  1.2994190305701149e-05 4.2987484930884036e-05 0.0000000000000000e+00  6.4140966915760647e-06 5.8518462980076068e-05 0.0000000000000000e+00  -3.4743956657342090e-06 7.5908503043299486e-05 0.0000000000000000e+00  -1.7042591063346196e-05 9.5071537487884073e-05 0.0000000000000000e+00  -3.4645065258114048e-05 1.1590749220344875e-04 0.0000000000000000e+00  -5.6616880483277035e-05 1.3830120774663651e-04 0.0000000000000000e+00  -8.3270536504389032e-05 1.6212134596623368e-04 0.0000000000000000e+00  -1.1489264750196071e-04 1.8721932405571160e-04 0.0000000000000000e+00  -1.5174034067197238e-04 2.1342832288138948e-04 0.0000000000000000e+00  -1.9403737711898950e-04 2.4056242175736321e-04 0.0000000000000000e+00  -2.4196999672442619e-04 2.6841591699912950e-04 0.0000000000000000e+00  -2.9568248189291399e-04 2.9676288574170172e-04 0.0000000000000000e+00  -3.5527241141453635e-04 3.2535705924041186e-04 0.0000000000000000e+00  -4.2078551772593175e-04 3.5393207033625174e-04 0.0000000000000000e+00  -4.9220993589554961e-04 3.8220213752834618e-04 0.0000000000000000e+00  -5.6946937755088483e-04 4.0986324294647116e-04 0.0000000000000000e+00  -6.5241425893769597e-04 4.3659485386597505e-04 0.0000000000000000e+00  -7.4080883314983073e-04 4.6206222884158490e-04 0.0000000000000000e+00  -8.3431049693626276e-04 4.8591934392350303e-04 0.0000000000000000e+00  -9.3243386214191969e-04 5.0781247836649644e-04 0.0000000000000000e+00  -1.0344854087985850e-03 5.2738452335366129e-04 0.0000000000000000e+00  -1.1394418123504581e-03 5.4428013548430234e-04 0.0000000000000000e+00  -1.2457213280263196e-03 5.5815196018605708e-04 0.0000000000000000e+00  -1.3507539028124649e-03 5.6866829218093779e-04 0.0000000000000000e+00  -1.4501762436049067e-03 5.7552265771538061e-04 0.0000000000000000e+00  -1.5363365560962642e-03 5.7844570686339824e-04 0.0000000000000000e+00  -1.5955487216750483e-03 5.7721907450733554e-04 0.0000000000000000e+00  -1.6031294085758984e-03 5.7168878145144239e-04 0.0000000000000000e+00  -1.5146212954969826e-03 5.6177142303084578e-04 0.0000000000000000e+00  -1.2507331050478898e-03 5.4743961338541097e-04 0.0000000000000000e+00  -6.7256968989363357e-04 5.2866641274521367e-04 0.0000000000000000e+00  4.5674435483389700e-04 5.0531032415647057e-04 0.0000000000000000e+00  2.5267678110440853e-03 4.7695005851001272e-04 0.0000000000000000e+00  6.1496458867191820e-03 4.4274817772475345e-04 0.0000000000000000e+00  0.0000000000000000e+00 -1.5432825769672480e-05 0.0000000000000000e+00  7.6048229020128917e-06 -1.4118576117555900e-05 0.0000000000000000e+00  1.4766403618972578e-05 -1.0237064644477112e-05 0.0000000000000000e+00  2.1064087821642103e-05 -3.7979144845973104e-06 0.0000000000000000e+00  2.6077844164293993e-05 5.1763027380668981e-06 0.0000000000000000e+00  2.9388655987910056e-05 1.6651378796857064e-05 0.0000000000000000e+00  3.0581419582880136e-05 3.0581419584279583e-05 0.0000000000000000e+00  2.9247568913737785e-05 4.6908235241619457e-05 0.0000000000000000e+00  2.4987224662938264e-05 6.5560498630163136e-05 0.0000000000000000e+00  1.7411273831270484e-05 8.6452720574049869e-05 0.0000000000000000e+00  6.1435833096084494e-06 1.0948407918299580e-04 0.0000000000000000e+00  -9.1765651936988511e-06 1.3453714068785620e-04 0.0000000000000000e+00  -2.8891776229991012e-05 1.6147651095017466e-04 0.0000000000000000e+00  -5.3323552316924100e-05 1.9014746073368132e-04 0.0000000000000000e+00  -8.2768999567078811e-05 2.2037457354155435e-04 0.0000000000000000e+00  -1.1749721665884699e-04 2.5196047183635034e-04 0.0000000000000000e+00  -1.5774536098509033e-04 2.8468468488677094e-04 0.0000000000000000e+00  -2.0371438710143733e-04 3.1830272893579694e-04 0.0000000000000000e+00  -2.5556444629170911e-04 3.5254547705474684e-04 0.0000000000000000e+00  -3.1340991325427972e-04 3.8711890142709691e-04 0.0000000000000000e+00  -3.7731394937634950e-04 4.2170427394975325e-04 0.0000000000000000e+00  -4.4728238853765367e-04 4.5595891163892756e-04 0.0000000000000000e+00  -5.2325647781048773e-04 4.8951755067012156e-04 0.0000000000000000e+00  -6.0510350163801244e-04 5.2199442732045801e-04 0.0000000000000000e+00  -6.9260333714383842e-04 5.5298613659739344e-04 0.0000000000000000e+00  -7.8542710235615903e-04 5.8207533200832484e-04 0.0000000000000000e+00  -8.8310046569165532e-04 6.0883532695578803e-04 0.0000000000000000e+00  -9.8493738993547190e-04 6.3283566437347940e-04 0.0000000000000000e+00  -1.0899173292003527e-03 6.5364874075223174e-04 0.0000000000000000e+00  -1.1964551595309767e-03 6.7085760031045149e-04 0.0000000000000000e+00  -1.3019694181257480e-03 6.8406503159081306e-04 0.0000000000000000e+00  -1.4020751014085413e-03 6.9290403687734823e-04 0.0000000000000000e+00  -1.4890861291870386e-03 6.9704946605690535e-04 0.0000000000000000e+00  -1.5492684632304442e-03 6.9622988483603932e-04 0.0000000000000000e+00  -1.5578800290833869e-03 6.9023731479959244e-04 