<?xml version="1.0"?>
<VTKFile type="UnstructuredGrid"  version="0.1"  >
<UnstructuredGrid>
<Piece  NumberOfPoints="1681" NumberOfCells="3200">
<Points>
<DataArray  type="Float64"  NumberOfComponents="3"  format="ascii">0 0 0  0.5 0 0  1 0 0  1.5 0 0  2 0 0  2.5 0 0  3 0 0  3.5 0 0  4 0 0  4.5 0 0  5 0 0  5.5 0 0  6 0 0  6.5 0 0  7 0 0  7.5 0 0  8 0 0  8.5 0 0  9 0 0  9.5 0 0  10 0 0  10.5 0 0  11 0 0  11.5 0 0  12 0 0  12.5 0 0  13 0 0  13.5 0 0  14 0 0  14.5 0 0  15 0 0  15.5 0 0  16 0 0  16.5 0 0  17 0 0  17.5 0 0  18 0 0  18.5 0 0  19 0 0  19.5 0 0  20 0 0  0 0.5 0  0.5 0.5 0  1 0.5 0  1.5 0.5 0  2 0.5 0  2.5 0.5 0  3 0.5 0  3.5 0.5 0  4 0.5 0  4.5 0.5 0  5 0.5 0  5.5 0.5 0  6 0.5 0  6.5 0.5 0  7 0.5 0  7.5 0.5 0  8 0.5 0  8.5 0.5 0  9 0.5 0  9.5 0.5 0  10 0.5 0  10.5 0.5 0  11 0.5 0  11.5 0.5 0  12 0.5 0  12.5 0.5 0  13 0.5 0  13.5 0.5 0  14 0.5 0  14.5 0.5 0  15 0.5 0  15.5 0.5 0  16 0.5 0  16.5 0.5 0  17 0.5 0  17.5 0.5 0  18 0.5 0  18.5 0.5 0  19 0.5 0  19.5 0.5 0  20 0.5 0  0 1 0  0.5 1 0  1 1 0  1.5 1 0  2 1 0  2.5 1 0  3 1 0  3.5 1 0  4 1 0  4.5 1 0  5 1 0  5.5 1 0  6 1 0  6.5 1 0  7 1 0  7.5 1 0  8 1 0  8.5 1 0  9 1 0  9.5 1 0  10 1 0  10.5 1 0  11 1 0  11.5 1 0  12 1 0  12.5 1 0  13 1 0  13.5 1 0  14 1 0  14.5 1 0  15 1 0  15.5 1 0  16 1 0  16.5 1 0  17 1 0  17.5 1 0  18 1 0  18.5 1 0  19 1 0  19.5 1 0  20 1 0  0 1.5 0  0.5 1.5 0  1 1.5 0  1.5 1.5 0  2 1.5 0  2.5 1.5 0  3 1.5 0  3.5 1.5 0  4 1.5 0  4.5 1.5 0  5 1.5 0  5.5 1.5 0  6 1.5 0  6.5 1.5 0  7 1.5 0  7.5 1.5 0  8 1.5 0  8.5 1.5 0  9 1.5 0  9.5 1.5 0  10 1.5 0  10.5 1.5 0  11 1.5 0  11.5 1.5 0  12 1.5 0  12.5 1.5 0  13 1.5 0  13.5 1.5 0  14 1.5 0  14.5 1.5 0  15 1.5 0  15.5 1.5 0  16 1.5 0  16.5 1.5 0  17 1.5 0  17.5 1.5 0  18 1.5 0  18.5 1.5 0  19 1.5 0  19.5 1.5 0  20 1.5 0  0 2 0  0.5 2 0  1 2 0  1.5 2 0  2 2 0  2.5 2 0  3 2 0  3.5 2 0  4 2 0  4.5 2 0  5 2 0  5.5 2 0  6 2 0  6.5 2 0  7 2 0  7.5 2 0  8 2 0  8.5 2 0  9 2 0  9.5 2 0  10 2 0  10.5 2 0  11 2 0  11.5 2 0  12 2 0  12.5 2 0  13 2 0  13.5 2 0  14 2 0  14.5 2 0  15 2 0  15.5 2 0  16 2 0  16.5 2 0  17 2 0  17.5 2 0  18 2 0  18.5 2 0  19 2 0  19.5 2 0  20 2 0  0 2.5 0  0.5 2.5 0  1 2.5 0  1.5 2.5 0  2 2.5 0  2.5 2.5 0  3 2.5 0  3.5 2.5 0  4 2.5 0  4.5 2.5 0  5 2.5 0  5.5 2.5 0  6 2.5 0  6.5 2.5 0  7 2.5 0  7.5 2.5 0  8 2.5 0  8.5 2.5 0  9 2.5 0  9.5 2.5 0  10 2.5 0  10.5 2.5 0  11 2.5 0  11.5 2.5 0  12 2.5 0  12.5 2.5 0  13 2.5 0  13.5 2.5 0  14 2.5 0  14.5 2.5 0  15 2.5 0  15.5 2.5 0  16 2.5 0  16.5 2.5 0  17 2.5 0  17.5 2.5 0  18 2.5 0  18.5 2.5 0  19 2.5 0  19.5 2.5 0  20 2.5 0  0 3 0  0.5 3 0  1 3 0  1.5 3 0  2 3 0  2.5 3 0  3 3 0  3.5 3 0  4 3 0  4.5 3 0  5 3 0  5.5 3 0  6 3 0  6.5 3 0  7 3 0  7.5 3 0  8 3 0  8.5 3 0  9 3 0  9.5 3 0  10 3 0  10.5 3 0  11 3 0  11.5 3 0  12 3 0  12.5 3 0  13 3 0  13.5 3 0  14 3 0  14.5 3 0  15 3 0  15.5 3 0  16 3 0  16.5 3 0  17 3 0  17.5 3 0  18 3 0  18.5 3 0  19 3 0  19.5 3 0  20 3 0  0 3.5 0  0.5 3.5 0  1 3.5 0  1.5 3.5 0  2 3.5 0  2.5 3.5 0  3 3.5 0  3.5 3.5 0  4 3.5 0  4.5 3.5 0  5 3.5 0  5.5 3.5 0  6 3.5 0  6.5 3.5 0  7 3.5 0  7.5 3.5 0  8 3.5 0  8.5 3.5 0  9 3.5 0  9.5 3.5 0  10 3.5 0  10.5 3.5 0  11 3.5 0  11.5 3.5 0  12 3.5 0  12.5 3.5 0  13 3.5 0  13.5 3.5 0  14 3.5 0  14.5 3.5 0  15 3.5 0  15.5 3.5 0  16 3.5 0  16.5 3.5 0  17 3.5 0  17.5 3.5 0  18 3.5 0  18.5 3.5 0  19 3.5 0  19.5 3.5 0  20 3.5 0  0 4 0  0.5 4 0  1 4 0  1.5 4 0  2 4 0  2.5 4 0  3 4 0  3.5 4 0  4 4 0  4.5 4 0  5 4 0  5.5 4 0  6 4 0  6.5 4 0  7 4 0  7.5 4 0  8 4 0  8.5 4 0  9 4 0  9.5 4 0  10 4 0  10.5 4 0  11 4 0  11.5 4 0  12 4 0  12.5 4 0  13 4 0  13.5 4 0  14 4 0  14.5 4 0  15 4 0  15.5 4 0  16 4 0  16.5 4 0  17 4 0  17.5 4 0  18 4 0  18.5 4 0  19 4 0  19.5 4 0  20 4 0  0 4.5 0  0.5 4.5 0  1 4.5 0  1.5 4.5 0  2 4.5 0  2.5 4.5 0  3 4.5 0  3.5 4.5 0  4 4.5 0  4.5 4.5 0  5 4.5 0  5.5 4.5 0  6 4.5 0  6.5 4.5 0  7 4.5 0  7.5 4.5 0  8 4.5 0  8.5 4.5 0  9 4.5 0  9.5 4.5 0  10 4.5 0  10.5 4.5 0  11 4.5 0  11.5 4.5 0  12 4.5 0  12.5 4.5 0  13 4.5 0  13.5 4.5 0  14 4.5 0  14.5 4.5 0  15 4.5 0  15.5 4.5 0  16 4.5 0  16.5 4.5 0  17 4.5 0  17.5 4.5 0  18 4.5 0  18.5 4.5 0  19 4.5 0  19.5 4.5 0  20 4.5 0  0 5 0  0.5 5 0  1 5 0  1.5 5 0  2 5 0  2.5 5 0  3 5 0  3.5 5 0  4 5 0  4.5 5 0  5 5 0  5.5 5 0  6 5 0  6.5 5 0  7 5 0  7.5 5 0  8 5 0  8.5 5 0  9 5 0  9.5 5 0  10 5 0  10.5 5 0  11 5 0  11.5 5 0  12 5 0  12.5 5 0  13 5 0  13.5 5 0  14 5 0  14.5 5 0  15 5 0  15.5 5 0  16 5 0  16.5 5 0  17 5 0  17.5 5 0  18 5 0  18.5 5 0  19 5 0  19.5 5 0  20 5 0  0 5.5 0  0.5 5.5 0  1 5.5 0  1.5 5.5 0  2 5.5 0  2.5 5.5 0  3 5.5 0  3.5 5.5 0  4 5.5 0  4.5 5.5 0  5 5.5 0  5.5 5.5 0  6 5.5 0  6.5 5.5 0  7 5.5 0  7.5 5.5 0  8 5.5 0  8.5 5.5 0  9 5.5 0  9.5 5.5 0  10 5.5 0  10.5 5.5 0  11 5.5 0  11.5 5.5 0  12 5.5 0  12.5 5.5 0  13 5.5 0  13.5 5.5 0  14 5.5 0  14.5 5.5 0  15 5.5 0  15.5 5.5 0  16 5.5 0  16.5 5.5 0  17 5.5 0  17.5 5.5 0  18 5.5 0  18.5 5.5 0  19 5.5 0  19.5 5.5 0  20 5.5 0  0 6 0  0.5 6 0  1 6 0  1.5 6 0  2 6 0  2.5 6 0  3 6 0  3.5 6 0  4 6 0  4.5 6 0  5 6 0  5.5 6 0  6 6 0  6.5 6 0  7 6 0  7.5 6 0  8 6 0  8.5 6 0  9 6 0  9.5 6 0  10 6 0  10.5 6 0  11 6 0  11.5 6 0  12 6 0  12.5 6 0  13 6 0  13.5 6 0  14 6 0  14.5 6 0  15 6 0  15.5 6 0  16 6 0  16.5 6 0  17 6 0  17.5 6 0  18 6 0  18.5 6 0  19 6 0  19.5 6 0  20 6 0  0 6.5 0  0.5 6.5 0  1 6.5 0  1.5 6.5 0  2 6.5 0  2.5 6.5 0  3 6.5 0  3.5 6.5 0  4 6.5 0  4.5 6.5 0  5 6.5 0  5.5 6.5 0  6 6.5 0  6.5 6.5 0  7 6.5 0  7.5 6.5 0  8 6.5 0  8.5 6.5 0  9 6.5 0  9.5 6.5 0  10 6.5 0  10.5 6.5 0  11 6.5 0  11.5 6.5 0  12 6.5 0  12.5 6.5 0  13 6.5 0  13.5 6.5 0  14 6.5 0  14.5 6.5 0  15 6.5 0  15.5 6.5 0  16 6.5 0  16.5 6.5 0  17 6.5 0  17.5 6.5 0  18 6.5 0  18.5 6.5 0  19 6.5 0  19.5 6.5 0  20 6.5 0  0 7 0  0.5 7 0  1 7 0  1.5 7 0  2 7 0  2.5 7 0  3 7 0  3.5 7 0  4 7 0  4.5 7 0  5 7 0  5.5 7 0  6 7 0  6.5 7 0  7 7 0  7.5 7 0  8 7 0  8.5 7 0  9 7 0  9.5 7 0  10 7 0  10.5 7 0  11 7 0  11.5 7 0  12 7 0  12.5 7 0  13 7 0  13.5 7 0  14 7 0  14.5 7 0  15 7 0  15.5 7 0  16 7 0  16.5 7 0  17 7 0  17.5 7 0  18 7 0  18.5 7 0  19 7 0  19.5 7 0  20 7 0  0 7.5 0  0.5 7.5 0  1 7.5 0  1.5 7.5 0  2 7.5 0  2.5 7.5 0  3 7.5 0  3.5 7.5 0  4 7.5 0  4.5 7.5 0  5 7.5 0  5.5 7.5 0  6 7.5 0  6.5 7.5 0  7 7.5 0  7.5 7.5 0  8 7.5 0  8.5 7.5 0  9 7.5 0  9.5 7.5 0  10 7.5 0  10.5 7.5 0  11 7.5 0  11.5 7.5 0  12 7.5 0  12.5 7.5 0  13 7.5 0  13.5 7.5 0  14 7.5 0  14.5 7.5 0  15 7.5 0  15.5 7.5 0  16 7.5 0  16.5 7.5 0  17 7.5 0  17.5 7.5 0  18 7.5 0  18.5 7.5 0  19 7.5 0  19.5 7.5 0  20 7.5 0  0 8 0  0.5 8 0  1 8 0  1.5 8 0  2 8 0  2.5 8 0  3 8 0  3.5 8 0  4 8 0  4.5 8 0  5 8 0  5.5 8 0  6 8 0  6.5 8 0  7 8 0  7.5 8 0  8 8 0  8.5 8 0  9 8 0  9.5 8 0  10 8 0  10.5 8 0  11 8 0  11.5 8 0  12 8 0  12.5 8 0  13 8 0  13.5 8 0  14 8 0  14.5 8 0  15 8 0  15.5 8 0  16 8 0  16.5 8 0  17 8 0  17.5 8 0  18 8 0  18.5 8 0  19 8 0  19.5 8 0  20 8 0  0 8.5 0  0.5 8.5 0  1 8.5 0  1.5 8.5 0  2 8.5 0  2.5 8.5 0  3 8.5 0  3.5 8.5 0  4 8.5 0  4.5 8.5 0  5 8.5 0  5.5 8.5 0  6 8.5 0  6.5 8.5 0  7 8.5 0  7.5 8.5 0  8 8.5 0  8.5 8.5 0  9 8.5 0  9.5 8.5 0  10 8.5 0  10.5 8.5 0  11 8.5 0  11.5 8.5 0  12 8.5 0  12.5 8.5 0  13 8.5 0  13.5 8.5 0  14 8.5 0  14.5 8.5 0  15 8.5 0  15.5 8.5 0  16 8.5 0  16.5 8.5 0  17 8.5 0  17.5 8.5 0  18 8.5 0  18.5 8.5 0  19 8.5 0  19.5 8.5 0  20 8.5 0  0 9 0  0.5 9 0  1 9 0  1.5 9 0  2 9 0  2.5 9 0  3 9 0  3.5 9 0  4 9 0  4.5 9 0  5 9 0  5.5 9 0  6 9 0  6.5 9 0  7 9 0  7.5 9 0  8 9 0  8.5 9 0  9 9 0  9.5 9 0  10 9 0  10.5 9 0  11 9 0  11.5 9 0  12 9 0  12.5 9 0  13 9 0  13.5 9 0  14 9 0  14.5 9 0  15 9 0  15.5 9 0  16 9 0  16.5 9 0  17 9 0  17.5 9 0  18 9 0  18.5 9 0  19 9 0  19.5 9 0  20 9 0  0 9.5 0  0.5 9.5 0  1 9.5 0  1.5 9.5 0  2 9.5 0  2.5 9.5 0  3 9.5 0  3.5 9.5 0  4 9.5 0  4.5 9.5 0  5 9.5 0  5.5 9.5 0  6 9.5 0  6.5 9.5 0  7 9.5 0  7.5 9.5 0  8 9.5 0  8.5 9.5 0  9 9.5 0  9.5 9.5 0  10 9.5 0  10.5 9.5 0  11 9.5 0  11.5 9.5 0  12 9.5 0  12.5 9.5 0  13 9.5 0  13.5 9.5 0  14 9.5 0  14.5 9.5 0  15 9.5 0  15.5 9.5 0  16 9.5 0  16.5 9.5 0  17 9.5 0  17.5 9.5 0  18 9.5 0  18.5 9.5 0  19 9.5 0  19.5 9.5 0  20 9.5 0  0 10 0  0.5 10 0  1 10 0  1.5 10 0  2 10 0  2.5 10 0  3 10 0  3.5 10 0  4 10 0  4.5 10 0  5 10 0  5.5 10 0  6 10 0  6.5 10 0  7 10 0  7.5 10 0  8 10 0  8.5 10 0  9 10 0  9.5 10 0  10 10 0  10.5 10 0  11 10 0  11.5 10 0  12 10 0  12.5 10 0  13 10 0  13.5 10 0  14 10 0  14.5 10 0  15 10 0  15.5 10 0  16 10 0  16.5 10 0  17 10 0  17.5 10 0  18 10 0  18.5 10 0  19 10 0  19.5 10 0  20 10 0  0 10.5 0  0.5 10.5 0  1 10.5 0  1.5 10.5 0  2 10.5 0  2.5 10.5 0  3 10.5 0  3.5 10.5 0  4 10.5 0  4.5 10.5 0  5 10.5 0  5.5 10.5 0  6 10.5 0  6.5 10.5 0  7 10.5 0  7.5 10.5 0  8 10.5 0  8.5 10.5 0  9 10.5 0  9.5 10.5 0  10 10.5 0  10.5 10.5 0  11 10.5 0  11.5 10.5 0  12 10.5 0  12.5 10.5 0  13 10.5 0  13.5 10.5 0  14 10.5 0  14.5 10.5 0  15 10.5 0  15.5 10.5 0  16 10.5 0  16.5 10.5 0  17 10.5 0  17.5 10.5 0  18 10.5 0  18.5 10.5 0  19 10.5 0  19.5 10.5 0  20 10.5 0  0 11 0  0.5 11 0  1 11 0  1.5 11 0  2 11 0  2.5 11 0  3 11 0  3.5 11 0  4 11 0  4.5 11 0  5 11 0  5.5 11 0  6 11 0  6.5 11 0  7 11 0  7.5 11 0  8 11 0  8.5 11 0  9 11 0  9.5 11 0  10 11 0  10.5 11 0  11 11 0  11.5 11 0  12 11 0  12.5 11 0  13 11 0  13.5 11 0  14 11 0  14.5 11 0  15 11 0  15.5 11 0  16 11 0  16.5 11 0  17 11 0  17.5 11 0  18 11 0  18.5 11 0  19 11 0  19.5 11 0  20 11 0  0 11.5 0  0.5 11.5 0  1 11.5 0  1.5 11.5 0  2 11.5 0  2.5 11.5 0  3 11.5 0  3.5 11.5 0  4 11.5 0  4.5 11.5 0  5 11.5 0  5.5 11.5 0  6 11.5 0  6.5 11.5 0  7 11.5 0  7.5 11.5 0  8 11.5 0  8.5 11.5 0  9 11.5 0  9.5 11.5 0  10 11.5 0  10.5 11.5 0  11 11.5 0  11.5 11.5 0  12 11.5 0  12.5 11.5 0  13 11.5 0  13.5 11.5 0  14 11.5 0  14.5 11.5 0  15 11.5 0  15.5 11.5 0  16 11.5 0  16.5 11.5 0  17 11.5 0  17.5 11.5 0  18 11.5 0  18.5 11.5 0  19 11.5 0  19.5 11.5 0  20 11.5 0  0 12 0  0.5 12 0  1 12 0  1.5 12 0  2 12 0  2.5 12 0  3 12 0  3.5 12 0  4 12 0  4.5 12 0  5 12 0  5.5 12 0  6 12 0  6.5 12 0  7 12 0  7.5 12 0  8 12 0  8.5 12 0  9 12 0  9.5 12 0  10 12 0  10.5 12 0  11 12 0  11.5 12 0  12 12 0  12.5 12 0  13 12 0  13.5 12 0  14 12 0  14.5 12 0  
[...]
<PointData  Vectors="f_5173-0"> 
<DataArray  type="Float64"  Name="f_5173-0"  NumberOfComponents="3" format="ascii">0.0000000000000000e+00 0.0000000000000000e+00 0.0000000000000000e+00  -3.3405698245223236e-08 0.0000000000000000e+00 0.0000000000000000e+00  -2.0463942589596235e-07 0.0000000000000000e+00 0.0000000000000000e+00  -6.6880593218546007e-07 0.0000000000000000e+00 0.0000000000000000e+00  -1.5702927727060588e-06 0.0000000000000000e+00 0.0000000000000000e+00  -3.0516796754860072e-06 0.0000000000000000e+00 0.0000000000000000e+00  -5.2532040257685804e-06 0.0000000000000000e+00 0.0000000000000000e+00  -8.3118762416925524e-06 0.0000000000000000e+00 0.0000000000000000e+00  -1.2360658148483260e-05 0.0000000000000000e+00 0.0000000000000000e+00  -1.7527634638840652e-05 0.0000000000000000e+00 0.0000000000000000e+00  -2.3935139540121900e-05 0.0000000000000000e+00 0.0000000000000000e+00  -3.1698820758439410e-05 0.0000000000000000e+00 0.0000000000000000e+00  -4.0926639328829834e-05 0.0000000000000000e+00 0.0000000000000000e+00  -5.1717801423314471e-05 0.0000000000000000e+00 0.0000000000000000e+00  -6.4161625640888324e-05 0.0000000000000000e+00 0.0000000000000000e+00  -7.8336350925386518e-05 0.0000000000000000e+00 0.0000000000000000e+00  -9.4307893751620743e-05 0.0000000000000000e+00 0.0000000000000000e+00  -1.1212856662489377e-04 0.0000000000000000e+00 0.0000000000000000e+00  -1.3183577346509036e-04 0.0000000000000000e+00 0.0000000000000000e+00  -1.5345070066464283e-04 0.0000000000000000e+00 0.0000000000000000e+00  -1.7697702520930696e-04 0.0000000000000000e+00 0.0000000000000000e+00  -2.0239966195639584e-04 0.0000000000000000e+00 0.0000000000000000e+00  -2.2968356924135794e-04 0.0000000000000000e+00 0.0000000000000000e+00  -2.5877262068511468e-04 0.0000000000000000e+00 0.0000000000000000e+00  -2.8958852149940374e-04 0.0000000000000000e+00 0.0000000000000000e+00  -3.2202967515816260e-04 0.0000000000000000e+00 0.0000000000000000e+00  -3.5596973254934159e-04 0.0000000000000000e+00 0.0000000000000000e+00  -3.9125513520988378e-04 0.0000000000000000e+00 0.0000000000000000e+00  -4.2769993669948032e-04 0.0000000000000000e+00 0.0000000000000000e+00  -4.6507365094829682e-04 0.0000000000000000e+00 0.0000000000000000e+00  -5.0307158103001957e-04 0.0000000000000000e+00 0.0000000000000000e+00  -5.4124140055684456e-04 0.0000000000000000e+00 0.0000000000000000e+00  -5.7880072254673715e-04 0.0000000000000000e+00 0.0000000000000000e+00  -6.1418371891072438e-04 0.0000000000000000e+00 0.0000000000000000e+00  -6.4391832954283123e-04 0.0000000000000000e+00 0.0000000000000000e+00  -6.5987027574013852e-04 0.0000000000000000e+00 0.0000000000000000e+00  -6.4259722131001368e-04 0.0000000000000000e+00 0.0000000000000000e+00  -5.4584621073154756e-04 0.0000000000000000e+00 0.0000000000000000e+00  -2.6254943961550464e-04 0.0000000000000000e+00 0.0000000000000000e+00  4.4193921783019347e-04 0.0000000000000000e+00 0.0000000000000000e+00  2.0420614747632048e-03 0.0000000000000000e+00 0.0000000000000000e+00  0.0000000000000000e+00 -3.3405698686636318e-08 0.0000000000000000e+00  5.1418660282186673e-08 5.1418659984206703e-08 0.0000000000000000e+00  -4.9039952125887888e-08 2.7468993186269151e-07 0.0000000000000000e+00  -4.4090739003256588e-07 6.4012434938487191e-07 0.0000000000000000e+00  -1.2694663758717443e-06 1.1487935661488386e-06 0.0000000000000000e+00  -2.6778528954856914e-06 1.7991627183872249e-06 0.0000000000000000e+00  -4.8064724983787241e-06 2.5884101545499013e-06 0.0000000000000000e+00  -7.7924264920725366e-06 3.5128586051646026e-06 0.0000000000000000e+00  -1.1768781218795625e-05 4.5680386198171985e-06 0.0000000000000000e+00  -1.6863759416961730e-05 5.7486494094520330e-06 0.0000000000000000e+00  -2.3199870178442157e-05 7.0484950266767072e-06 0.0000000000000000e+00  -3.0892975651936461e-05 8.4604151513501583e-06 0.0000000000000000e+00  -4.0051291204265284e-05 9.9762153805523355e-06 0.0000000000000000e+00  -5.0774318019712092e-05 1.1586599396630402e-05 0.0000000000000000e+00  -6.3151710043745499e-05 1.3281105409713424e-05 0.0000000000000000e+00  -7.7262080305341837e-05 1.5048049737852887e-05 0.0000000000000000e+00  -9.3171755014175210e-05 1.6874480753002791e-05 0.0000000000000000e+00  -1.1093348731088059e-04 1.8746146705815874e-05 0.0000000000000000e+00  -1.3058514613492996e-04 2.0647480993183773e-05 0.0000000000000000e+00  -1.5214839909798478e-04 2.2561608209918349e-05 0.0000000000000000e+00  -1.7562741090386996e-04 2.4470373682842954e-05 0.0000000000000000e+00  -2.0100758000897041e-04 2.6354397877510678e-05 0.0000000000000000e+00  -2.2825433375763714e-04 2.8193154757174546e-05 0.0000000000000000e+00  -2.5731199197454084e-04 2.9965069126786626e-05 0.0000000000000000e+00  -2.8810268115433014e-04 3.1647621048710584e-05 0.0000000000000000e+00  -3.2052521241601105e-04 3.3217433448971510e-05 0.0000000000000000e+00  -3.5445366893197385e-04 3.4650297987288079e-05 0.0000000000000000e+00  -3.8973503975455262e-04 3.5921057374054120e-05 0.0000000000000000e+00  -4.2618423030369639e-04 3.7003198299343537e-05 0.0000000000000000e+00  -4.6357227845611617e-04 3.7867902409342274e-05 0.0000000000000000e+00  -5.0159735410257571e-04 3.8482142012525561e-05 0.0000000000000000e+00  -5.3981245711485397e-04 3.8805223477347100e-05 0.0000000000000000e+00  -5.7744452833709606e-04 3.8783174705114766e-05 0.0000000000000000e+00  -6.1294216003659942e-04 3.8341256263555058e-05 0.0000000000000000e+00  -6.4284962346168638e-04 3.7378592716905864e-05 0.0000000000000000e+00  -6.5903168799490706e-04 3.5779389227531821e-05 0.0000000000000000e+00  -6.4196571222765965e-04 3.3475712882711278e-05 0.0000000000000000e+00  -5.4510085390848133e-04 3.0610738434751484e-05 0.0000000000000000e+00  -2.6069259573348661e-04 2.7756203834846740e-05 0.0000000000000000e+00  4.4666249105335202e-04 2.5622000756603452e-05 0.0000000000000000e+00  2.0463572922997443e-03 2.2183631829460206e-05 0.0000000000000000e+00  0.0000000000000000e+00 -2.0463942571622860e-07 0.0000000000000000e+00  2.7468993145589076e-07 -4.9039953660206790e-08 0.0000000000000000e+00  3.9455524209246927e-07 3.9455524132204781e-07 0.0000000000000000e+00  2.2206505955514497e-07 1.1265089817325351e-06 0.0000000000000000e+00  -3.8716502509823417e-07 2.1451946765601111e-06 0.0000000000000000e+00  -1.5762357084929160e-06 3.4468778188726068e-06 0.0000000000000000e+00  -3.4857559420008896e-06 5.0260768892225625e-06 0.0000000000000000e+00  -6.2530896375343777e-06 6.8756633736835074e-06 0.0000000000000000e+00  -1.0011625693503871e-05 8.9868639309428405e-06 0.0000000000000000e+00  -1.4889993307550032e-05 1.1349197196592737e-05 0.0000000000000000e+00  -2.1011210028190954e-05 1.3950370141843835e-05 0.0000000000000000e+00  -2.8491759996300165e-05 1.6776153140182643e-05 0.0000000000000000e+00  -3.7440601054537061e-05 1.9810246024155318e-05 0.0000000000000000e+00  -4.7958100595118753e-05 2.3034143614999525e-05 0.0000000000000000e+00  -6.0134902120557811e-05 2.6427007585264651e-05 0.0000000000000000e+00  -7.4050727224411574e-05 2.9965551425970710e-05 0.0000000000000000e+00  -8.9773120915587895e-05 3.3623945462929016e-05 0.0000000000000000e+00  -1.0735615179072691e-04 3.7373749237574139e-05 0.0000000000000000e+00  -1.2683908227993686e-04 4.1183878625340827e-05 0.0000000000000000e+00  -1.4824502790209752e-04 4.5020614748857667e-05 0.0000000000000000e+00  -1.7157962767410241e-04 4.8847660566446277e-05 0.0000000000000000e+00  -1.9682974971462817e-04 5.2626248921652531e-05 0.0000000000000000e+00  -2.2396225498611232e-04 5.6315301885496275e-05 0.0000000000000000e+00  -2.5292283404673726e-04 5.9871634740950837e-05 0.0000000000000000e+00  -2.8363490754614685e-04 6.3250187330255480e-05 0.0000000000000000e+00  -3.1599851863127736e-04 6.6404248214038295e-05 0.0000000000000000e+00  -3.4988898848943280e-04 6.9285609355520088e-05 0.0000000000000000e+00  -3.8515471450567453e-04 7.1844545361793538e-05 0.0000000000000000e+00  -4.2161250753511357e-04 7.4029446215119466e-05 0.0000000000000000e+00  -4.5903638629715059e-04 7.5785846923619445e-05 0.0000000000000000e+00  -4.9712947966774304e-04 7.7054522465573014e-05 0.0000000000000000e+00  -5.3545284343642200e-04 7.7768373386084087e-05 0.0000000000000000e+00  -5.7324509942836257e-04 7.7848368991436883e-05 0.0000000000000000e+00  -6.0896724068324284e-04 7.7200662645606334e-05 0.0000000000000000e+00  -6.3916266708609359e-04 7.5721576359390311e-05 0.0000000000000000e+00  -6.5564092043665536e-04 7.3325426782765575e-05 0.0000000000000000e+00  -6.3868112517055761e-04 7.0016725921185876e-05 0.0000000000000000e+00  -5.4127312848333020e-04 6.6003858054507395e-05 0.0000000000000000e+00  -2.5501053780960876e-04 6.1715455522817560e-05 0.0000000000000000e+00  4.5546246669752010e-04 5.7233477530934777e-05 0.0000000000000000e+00  2.0557042023509726e-03 5.0365768447917308e-05 0.0000000000000000e+00  0.0000000000000000e+00 -6.6880593276394069e-07 0.0000000000000000e+00  6.4012434850651643e-07 -4.4090739085233400e-07 0.0000000000000000e+00  1.1265089804335467e-06 2.2206505872017149e-07 0.0000000000000000e+00  1.3194318001511831e-06 1.3194318016627117e-06 0.0000000000000000e+00  1.0753291184383682e-06 2.8476579113018992e-06 0.0000000000000000e+00  2.5117227560001568e-07 4.8007605906007897e-06 0.0000000000000000e+00  -1.2938202059899616e-06 7.1704260042507733e-06 0.0000000000000000e+00  -3.6973506994463249e-06 9.9460369749969567e-06 0.0000000000000000e+00  -7.0933004863244668e-06 1.3114589835656685e-05 0.0000000000000000e+00  -1.1610953236512603e-05 1.6660551981522054e-05 0.0000000000000000e+00  -1.7374157873347411e-05 2.0565687125482805e-05 0.0000000000000000e+00  -2.4500421235480219e-05 2.4808861157451636e-05 0.0000000000000000e+00  -3.3099926139668681e-05 2.9365837918610891e-05 0.0000000000000000e+00  -4.3274473322561835e-05 3.4209073912029848e-05 0.0000000000000000e+00  -5.5116348319837084e-05 3.9307521259163798e-05 0.0000000000000000e+00  -6.8707117152515707e-05 4.4626448930240939e-05 0.0000000000000000e+00  -8.4116357942011825e-05 5.0127292928594090e-05 0.0000000000000000e+00  -1.0140033924537223e-04 5.5767546720852885e-05 0.0000000000000000e+00  -1.2060065989620715e-04 6.1500703457791059e-05 0.0000000000000000e+00  -1.4174286922975665e-04 6.7276261243761484e-05 0.0000000000000000e+00  -1.6483509046654661e-04 7.3039801442103251e-05 0.0000000000000000e+00  -1.8986667300953573e-04 7.8733147447839413e-05 0.0000000000000000e+00  -2.1680689984911734e-04 8.4294606834897426e-05 0.0000000000000000e+00  -2.4560377071937471e-04 8.9659292352772921e-05 0.0000000000000000e+00  -2.7618286122005624e-04 9.4759505912410237e-05 0.0000000000000000e+00  -3.0844620105670837e-04 9.9525152569658953e-05 0.0000000000000000e+00  -3.4227096526438799e-04 1.0388412692701329e-04 0.0000000000000000e+00  -3.7750738901271176e-04 1.0776258132253238e-04 0.0000000000000000e+00  -4.1397433688192904e-04 1.1108494741024112e-04 0.0000000000000000e+00  -4.5144845618244421e-04 1.1377355780174694e-04 0.0000000000000000e+00  -4.8963647042925469e-04 1.1574775670195214e-04 0.0000000000000000e+00  -5.2810399716828201e-04 1.1692263148845468e-04 0.0000000000000000e+00  -5.6609354633498402e-04 1.1720821374090923e-04 0.0000000000000000e+00  -6.0206304474446563e-04 1.1651160458485445e-04 0.0000000000000000e+00  -6.3252920277613687e-04 1.1474719129325281e-04 0.0000000000000000e+00  -6.4921699117629001e-04 1.1186248404254013e-04 0.0000000000000000e+00  -6.3221424251666872e-04 1.0788215798789355e-04 0.0000000000000000e+00  -5.3420095727224495e-04 1.0294268289921396e-04 0.0000000000000000e+00  -2.4653712278429381e-04 9.7210760385846206e-05 0.0000000000000000e+00  4.6561055188330033e-04 9.0482540211792392e-05 0.0000000000000000e+00  2.0655496400271531e-03 8.1446447180496441e-05 0.0000000000000000e+00  0.0000000000000000e+00 -1.5702927721381130e-06 0.0000000000000000e+00  1.1487935654349088e-06 -1.2694663753301283e-06 0.0000000000000000e+00  2.1451946755435051e-06 -3.8716502491040826e-07 0.0000000000000000e+00  2.8476579097430909e-06 1.0753291203017422e-06 0.0000000000000000e+00  3.1129078154444331e-06 3.1129078164412350e-06 0.0000000000000000e+00  2.7979341079199300e-06 5.7174851571242489e-06 0.0000000000000000e+00  1.7617222549837284e-06 8.8780640809555420e-06 0.0000000000000000e+00  -1.3386383315150247e-07 1.2580683283152714e-05 0.0000000000000000e+00  -3.0233481352165369e-06 1.6808267938737216e-05 0.0000000000000000e+00  -7.0368886787257142e-06 2.1540421231847313e-05 0.0000000000000000e+00  -1.2299462902898508e-05 2.6753178233221658e-05 0.0000000000000000e+00  -1.8929979809711177e-05 3.2418736160026689e-05 0.0000000000000000e+00  -2.7040313007167510e-05 3.8505172127277009e-05 0.0000000000000000e+00  -3.6734251637457973e-05 4.4976159208332869e-05 0.0000000000000000e+00  -4.8106368735199184e-05 5.1790692441420362e-05 0.0000000000000000e+00  -6.1240809449149001e-05 5.8902837677128718e-05 0.0000000000000000e+00  -7.6210004936135814e-05 6.6261517490365224e-05 0.0000000000000000e+00  -9.3073321531125721e-05 7.3810349492240120e-05 0.0000000000000000e+00  -1.1187565913108975e-04 8.1487553077239525e-05 0.0000000000000000e+00  -1.3264601731383723e-04 8.9225940617518662e-05 0.0000000000000000e+00  -1.5539605236336774e-04 9.6953008151342602e-05 0.0000000000000000e+00  -1.8011865247732195e-04 1.0459113809155382e-04 0.0000000000000000e+00  -2.0678656044359570e-04 1.1205792206097894e-04 0.0000000000000000e+00  -2.3535106966708757e-04 1.1926660484912312e-04 0.0000000000000000e+00  -2.6574080182024034e-04 1.2612664011888835e-04 0.0000000000000000e+00  -2.9786052055955509e-04 1.3254433414803700e-04 0.0000000000000000e+00  -3.3158978900041641e-04 1.3842353599412819e-04 0.0000000000000000e+00  -3.6678089392827915e-04 1.4366631337137421e-04 0.0000000000000000e+00  -4.0325446514887192e-04 1.4817354211501865e-04 0.0000000000000000e+00  -4.4078866694827911e-04 1.5184535483117392e-04 0.0000000000000000e+00  -4.7909133364998770e-04 1.5458148871964536e-04 0.0000000000000000e+00  -5.1772795457019725e-04 1.5628182897180218e-04 0.0000000000000000e+00  -5.5593712838266068e-04 1.5684797867359268e-04 0.0000000000000000e+00  -5.9216300690795537e-04 1.5618754363425289e-04 0.0000000000000000e+00  -6.2288687626613226e-04 1.5422362130300543e-04 0.0000000000000000e+00  -6.3975964570901008e-04 1.5091111358900048e-04 0.0000000000000000e+00  -6.2274651420747269e-04 1.4625505198937643e-04 0.0000000000000000e+00  -5.2439382217578574e-04 1.4030878999855240e-04 0.0000000000000000e+00  -2.3607477774316947e-04 1.3310376550859776e-04 0.0000000000000000e+00  4.7659085626361323e-04 1.2446229256063846e-04 0.0000000000000000e+00  2.0760062458138866e-03 1.1377759273689627e-04 0.0000000000000000e+00  0.0000000000000000e+00 -3.0516796736944330e-06 0.0000000000000000e+00  1.7991627184084413e-06 -2.6778528948765519e-06 0.0000000000000000e+00  3.4468778183368097e-06 -1.5762357080015888e-06 0.0000000000000000e+00  4.8007605897102370e-06 2.5117227694005081e-07 0.0000000000000000e+00  5.7174851566794151e-06 2.7979341090097662e-06 0.0000000000000000e+00  6.0540295175619388e-06 6.0540295190031577e-06 0.0000000000000000e+00  5.6691184604791523e-06 1.0005959650844452e-05 0.0000000000000000e+00  4.4241093920224259e-06 1.4636632089845526e-05 0.0000000000000000e+00  2.1837065929458615e-06 1.9925145726833476e-05 0.0000000000000000e+00  -1.1833166111389297e-06 2.5846513181648414e-05 0.0000000000000000e+00  -5.8033352585328106e-06 3.2371340643848170e-05 0.0000000000000000e+00  -1.1797012682409109e-05 3.9465478614089837e-05 0.0000000000000000e+00  -1.9278355052634561e-05 4.7089655654538389e-05 0.0000000000000000e+00  -2.8353675965519051e-05 5.5199107876747307e-05 0.0000000000000000e+00  -3.9120468942021897e-05 6.3743218316635646e-05 0.0000000000000000e+00  -5.1666188490920175e-05 7.2665182197202512e-05 0.0000000000000000e+00  -6.6066943703279733e-05 8.1901715938232161e-05 0.0000000000000000e+00  -8.2386112350147991e-05 9.1382829504659338e-05 0.0000000000000000e+00  -1.0067288799491148e-04 1.0103168297416200e-04 0.0000000000000000e+00  -1.2096077781094515e-04 1.1076454876592735e-04 0.0000000000000000e+00  -1.4326607418228718e-04 1.2049090051814216e-04 0.0000000000000000e+00  -1.6758632836243767e-04 1.3011364764195944e-04 0.0000000000000000e+00  -1.9389885792882406e-04 1.3952953070175617e-04 0.0000000000000000e+00  -2.2215931810104359e-04 1.4862968662578065e-04 0.0000000000000000e+00  -2.5230035121995666e-04 1.5730038389478304e-04 0.0000000000000000e+00  -2.8423027610004339e-04 1.6542391667429121e-04 0.0000000000000000e+00  -3.1783163134637630e-04 1.7287963451499474e-04 0.0000000000000000e+00  -3.5295899508373606e-04 1.7954507466080421e-04 0.0000000000000000e+00  -3.8943448833057506e-04 1.8529716582027980e-04 0.0000000000000000e+00  -4.2703676895602705e-04 1.9001350193822701e-04 0.0000000000000000e+00  -4.6547271892597992e-04 1.9357376980329283e-04 0.0000000000000000e+00  -5.0430439069754172e-04 1.9586158852794022e-04 0.0000000000000000e+00  -5.4276227803898248e-04 1.9676729304916578e-04 0.0000000000000000e+00  -5.7927381672812528e-04 1.9619247018890892e-04 0.0000000000000000e+00  -6.1028938635684991e-04 1.9405695836601682e-04 0.0000000000000000e+00  -6.2741062220670230e-04 1.9030770780224546e-04 0.0000000000000000e+00  -6.1054206791044847e-04 1.8492525664679562e-04 0.0000000000000000e+00  -5.1219459904317292e-04 1.7791769059927773e-04 0.0000000000000000e+00  -2.2381020547577622e-04 1.6928776707455601e-04 0.0000000000000000e+00  4.8874907384204806e-04 1.5896238103625061e-04 0.0000000000000000e+00  2.0876558875391692e-03 1.4668069741875518e-04 0.0000000000000000e+00  0.0000000000000000e+00 -5.2532040249149490e-06 0.0000000000000000e+00  2.5884101553244498e-06 -4.8064724969612441e-06 0.0000000000000000e+00  5.0260768885110074e-06 -3.4857559414090313e-06 0.0000000000000000e+00  7.1704260035639541e-06 -1.2938202044168404e-06 0.0000000000000000e+00  8.8780640803647535e-06 1.7617222571208428e-06 0.0000000000000000e+00  1.0005959649823660e-05 5.6691184624035950e-06 0.0000000000000000e+00  1.0412592577499158e-05 1.0412592579148363e-05 0.0000000000000000e+00  9.9587861791649463e-06 1.5972186116471768e-05 0.0000000000000000e+00  8.5083866205955327e-06 2.2323479550058036e-05 0.0000000000000000e+00  5.9289443327742495e-06 2.9437242934984320e-05 0.0000000000000000e+00  2.0924556531292071e-06 3.7279036841968759e-05 0.0000000000000000e+00  -3.1238136047532603e-06 4.5808777449513979e-05 0.0000000000000000e+00  -9.8364120762854888e-06 5.4980278717204710e-05 0.0000000000000000e+00  -1.8154687588503793e-05 6.4740785912639458e-05 0.0000000000000000e+00  -2.8179668455395446e-05 7.5030516935170591e-05 0.0000000000000000e+00  -4.0002839727836224e-05 8.5782230454893558e-05 0.0000000000000000e+00  -5.3704816037227394e-05 9.6920842385856464e-05 0.0000000000000000e+00  -6.9353916717184230e-05 1.0836311478718714e-04 0.0000000000000000e+00  -8.7004653732194282e-05 1.2001744329113694e-04 0.0000000000000000e+00  -1.0669614853650467e-04 1.3178377056165909e-04 0.0000000000000000e+00  -1.2845050020419889e-04 1.4355365366691155e-04 0.0000000000000000e+00  -1.5227113335693340e-04 1.5521051211532039e-04 0.0000000000000000e+00  -1.7814115925540155e-04 1.6663008039882298e-04 0.0000000000000000e+00  -2.0602178323500032e-04 1.7768108378932165e-04 0.0000000000000000e+00  -2.3585077718624980e-04 1.8822614884363869e-04 0.0000000000000000e+00  -2.6754098370744642e-04 1.9812295094291153e-04 0.0000000000000000e+00  -3.0097866895143166e-04 2.0722559187822718e-04 0.0000000000000000e+00  -3.3602114254799293e-04 2.1538619419676934e-04 0.0000000000000000e+00  -3.7249203120658212e-04 2.2245670203122924e-04 0.0000000000000000e+00  -4.1016996030662393e-04 2.2829089979693393e-04 0.0000000000000000e+00  -4.4875974273291772e-04 2.3274671162206410e-04 0.0000000000000000e+00  -4.8781847988692718e-04 2.3568893014447854e-04 0.0000000000000000e+00  -5.2656747481288381e-04 2.3699262044126189e-04 0.0000000000000000e+00  -5.6341891125992840e-04 2.3654746686688999e-04 0.0000000000000000e+00  -5.9480037136837923e-04 2.342630968548284