<?xml version="1.0"?>
<VTKFile type="UnstructuredGrid"  version="0.1"  >
<UnstructuredGrid>
<Piece  NumberOfPoints="1681" NumberOfCells="3200">
<Points>
<DataArray  type="Float64"  NumberOfComponents="3"  format="ascii">0 0 0  0.5 0 0  1 0 0  1.5 0 0  2 0 0  2.5 0 0  3 0 0  3.5 0 0  4 0 0  4.5 0 0  5 0 0  5.5 0 0  6 0 0  6.5 0 0  7 0 0  7.5 0 0  8 0 0  8.5 0 0  9 0 0  9.5 0 0  10 0 0  10.5 0 0  11 0 0  11.5 0 0  12 0 0  12.5 0 0  13 0 0  13.5 0 0  14 0 0  14.5 0 0  15 0 0  15.5 0 0  16 0 0  16.5 0 0  17 0 0  17.5 0 0  18 0 0  18.5 0 0  19 0 0  19.5 0 0  20 0 0  0 0.5 0  0.5 0.5 0  1 0.5 0  1.5 0.5 0  2 0.5 0  2.5 0.5 0  3 0.5 0  3.5 0.5 0  4 0.5 0  4.5 0.5 0  5 0.5 0  5.5 0.5 0  6 0.5 0  6.5 0.5 0  7 0.5 0  7.5 0.5 0  8 0.5 0  8.5 0.5 0  9 0.5 0  9.5 0.5 0  10 0.5 0  10.5 0.5 0  11 0.5 0  11.5 0.5 0  12 0.5 0  12.5 0.5 0  13 0.5 0  13.5 0.5 0  14 0.5 0  14.5 0.5 0  15 0.5 0  15.5 0.5 0  16 0.5 0  16.5 0.5 0  17 0.5 0  17.5 0.5 0  18 0.5 0  18.5 0.5 0  19 0.5 0  19.5 0.5 0  20 0.5 0  0 1 0  0.5 1 0  1 1 0  1.5 1 0  2 1 0  2.5 1 0  3 1 0  3.5 1 0  4 1 0  4.5 1 0  5 1 0  5.5 1 0  6 1 0  6.5 1 0  7 1 0  7.5 1 0  8 1 0  8.5 1 0  9 1 0  9.5 1 0  10 1 0  10.5 1 0  11 1 0  11.5 1 0  12 1 0  12.5 1 0  13 1 0  13.5 1 0  14 1 0  14.5 1 0  15 1 0  15.5 1 0  16 1 0  16.5 1 0  17 1 0  17.5 1 0  18 1 0  18.5 1 0  19 1 0  19.5 1 0  20 1 0  0 1.5 0  0.5 1.5 0  1 1.5 0  1.5 1.5 0  2 1.5 0  2.5 1.5 0  3 1.5 0  3.5 1.5 0  4 1.5 0  4.5 1.5 0  5 1.5 0  5.5 1.5 0  6 1.5 0  6.5 1.5 0  7 1.5 0  7.5 1.5 0  8 1.5 0  8.5 1.5 0  9 1.5 0  9.5 1.5 0  10 1.5 0  10.5 1.5 0  11 1.5 0  11.5 1.5 0  12 1.5 0  12.5 1.5 0  13 1.5 0  13.5 1.5 0  14 1.5 0  14.5 1.5 0  15 1.5 0  15.5 1.5 0  16 1.5 0  16.5 1.5 0  17 1.5 0  17.5 1.5 0  18 1.5 0  18.5 1.5 0  19 1.5 0  19.5 1.5 0  20 1.5 0  0 2 0  0.5 2 0  1 2 0  1.5 2 0  2 2 0  2.5 2 0  3 2 0  3.5 2 0  4 2 0  4.5 2 0  5 2 0  5.5 2 0  6 2 0  6.5 2 0  7 2 0  7.5 2 0  8 2 0  8.5 2 0  9 2 0  9.5 2 0  10 2 0  10.5 2 0  11 2 0  11.5 2 0  12 2 0  12.5 2 0  13 2 0  13.5 2 0  14 2 0  14.5 2 0  15 2 0  15.5 2 0  16 2 0  16.5 2 0  17 2 0  17.5 2 0  18 2 0  18.5 2 0  19 2 0  19.5 2 0  20 2 0  0 2.5 0  0.5 2.5 0  1 2.5 0  1.5 2.5 0  2 2.5 0  2.5 2.5 0  3 2.5 0  3.5 2.5 0  4 2.5 0  4.5 2.5 0  5 2.5 0  5.5 2.5 0  6 2.5 0  6.5 2.5 0  7 2.5 0  7.5 2.5 0  8 2.5 0  8.5 2.5 0  9 2.5 0  9.5 2.5 0  10 2.5 0  10.5 2.5 0  11 2.5 0  11.5 2.5 0  12 2.5 0  12.5 2.5 0  13 2.5 0  13.5 2.5 0  14 2.5 0  14.5 2.5 0  15 2.5 0  15.5 2.5 0  16 2.5 0  16.5 2.5 0  17 2.5 0  17.5 2.5 0  18 2.5 0  18.5 2.5 0  19 2.5 0  19.5 2.5 0  20 2.5 0  0 3 0  0.5 3 0  1 3 0  1.5 3 0  2 3 0  2.5 3 0  3 3 0  3.5 3 0  4 3 0  4.5 3 0  5 3 0  5.5 3 0  6 3 0  6.5 3 0  7 3 0  7.5 3 0  8 3 0  8.5 3 0  9 3 0  9.5 3 0  10 3 0  10.5 3 0  11 3 0  11.5 3 0  12 3 0  12.5 3 0  13 3 0  13.5 3 0  14 3 0  14.5 3 0  15 3 0  15.5 3 0  16 3 0  16.5 3 0  17 3 0  17.5 3 0  18 3 0  18.5 3 0  19 3 0  19.5 3 0  20 3 0  0 3.5 0  0.5 3.5 0  1 3.5 0  1.5 3.5 0  2 3.5 0  2.5 3.5 0  3 3.5 0  3.5 3.5 0  4 3.5 0  4.5 3.5 0  5 3.5 0  5.5 3.5 0  6 3.5 0  6.5 3.5 0  7 3.5 0  7.5 3.5 0  8 3.5 0  8.5 3.5 0  9 3.5 0  9.5 3.5 0  10 3.5 0  10.5 3.5 0  11 3.5 0  11.5 3.5 0  12 3.5 0  12.5 3.5 0  13 3.5 0  13.5 3.5 0  14 3.5 0  14.5 3.5 0  15 3.5 0  15.5 3.5 0  16 3.5 0  16.5 3.5 0  17 3.5 0  17.5 3.5 0  18 3.5 0  18.5 3.5 0  19 3.5 0  19.5 3.5 0  20 3.5 0  0 4 0  0.5 4 0  1 4 0  1.5 4 0  2 4 0  2.5 4 0  3 4 0  3.5 4 0  4 4 0  4.5 4 0  5 4 0  5.5 4 0  6 4 0  6.5 4 0  7 4 0  7.5 4 0  8 4 0  8.5 4 0  9 4 0  9.5 4 0  10 4 0  10.5 4 0  11 4 0  11.5 4 0  12 4 0  12.5 4 0  13 4 0  13.5 4 0  14 4 0  14.5 4 0  15 4 0  15.5 4 0  16 4 0  16.5 4 0  17 4 0  17.5 4 0  18 4 0  18.5 4 0  19 4 0  19.5 4 0  20 4 0  0 4.5 0  0.5 4.5 0  1 4.5 0  1.5 4.5 0  2 4.5 0  2.5 4.5 0  3 4.5 0  3.5 4.5 0  4 4.5 0  4.5 4.5 0  5 4.5 0  5.5 4.5 0  6 4.5 0  6.5 4.5 0  7 4.5 0  7.5 4.5 0  8 4.5 0  8.5 4.5 0  9 4.5 0  9.5 4.5 0  10 4.5 0  10.5 4.5 0  11 4.5 0  11.5 4.5 0  12 4.5 0  12.5 4.5 0  13 4.5 0  13.5 4.5 0  14 4.5 0  14.5 4.5 0  15 4.5 0  15.5 4.5 0  16 4.5 0  16.5 4.5 0  17 4.5 0  17.5 4.5 0  18 4.5 0  18.5 4.5 0  19 4.5 0  19.5 4.5 0  20 4.5 0  0 5 0  0.5 5 0  1 5 0  1.5 5 0  2 5 0  2.5 5 0  3 5 0  3.5 5 0  4 5 0  4.5 5 0  5 5 0  5.5 5 0  6 5 0  6.5 5 0  7 5 0  7.5 5 0  8 5 0  8.5 5 0  9 5 0  9.5 5 0  10 5 0  10.5 5 0  11 5 0  11.5 5 0  12 5 0  12.5 5 0  13 5 0  13.5 5 0  14 5 0  14.5 5 0  15 5 0  15.5 5 0  16 5 0  16.5 5 0  17 5 0  17.5 5 0  18 5 0  18.5 5 0  19 5 0  19.5 5 0  20 5 0  0 5.5 0  0.5 5.5 0  1 5.5 0  1.5 5.5 0  2 5.5 0  2.5 5.5 0  3 5.5 0  3.5 5.5 0  4 5.5 0  4.5 5.5 0  5 5.5 0  5.5 5.5 0  6 5.5 0  6.5 5.5 0  7 5.5 0  7.5 5.5 0  8 5.5 0  8.5 5.5 0  9 5.5 0  9.5 5.5 0  10 5.5 0  10.5 5.5 0  11 5.5 0  11.5 5.5 0  12 5.5 0  12.5 5.5 0  13 5.5 0  13.5 5.5 0  14 5.5 0  14.5 5.5 0  15 5.5 0  15.5 5.5 0  16 5.5 0  16.5 5.5 0  17 5.5 0  17.5 5.5 0  18 5.5 0  18.5 5.5 0  19 5.5 0  19.5 5.5 0  20 5.5 0  0 6 0  0.5 6 0  1 6 0  1.5 6 0  2 6 0  2.5 6 0  3 6 0  3.5 6 0  4 6 0  4.5 6 0  5 6 0  5.5 6 0  6 6 0  6.5 6 0  7 6 0  7.5 6 0  8 6 0  8.5 6 0  9 6 0  9.5 6 0  10 6 0  10.5 6 0  11 6 0  11.5 6 0  12 6 0  12.5 6 0  13 6 0  13.5 6 0  14 6 0  14.5 6 0  15 6 0  15.5 6 0  16 6 0  16.5 6 0  17 6 0  17.5 6 0  18 6 0  18.5 6 0  19 6 0  19.5 6 0  20 6 0  0 6.5 0  0.5 6.5 0  1 6.5 0  1.5 6.5 0  2 6.5 0  2.5 6.5 0  3 6.5 0  3.5 6.5 0  4 6.5 0  4.5 6.5 0  5 6.5 0  5.5 6.5 0  6 6.5 0  6.5 6.5 0  7 6.5 0  7.5 6.5 0  8 6.5 0  8.5 6.5 0  9 6.5 0  9.5 6.5 0  10 6.5 0  10.5 6.5 0  11 6.5 0  11.5 6.5 0  12 6.5 0  12.5 6.5 0  13 6.5 0  13.5 6.5 0  14 6.5 0  14.5 6.5 0  15 6.5 0  15.5 6.5 0  16 6.5 0  16.5 6.5 0  17 6.5 0  17.5 6.5 0  18 6.5 0  18.5 6.5 0  19 6.5 0  19.5 6.5 0  20 6.5 0  0 7 0  0.5 7 0  1 7 0  1.5 7 0  2 7 0  2.5 7 0  3 7 0  3.5 7 0  4 7 0  4.5 7 0  5 7 0  5.5 7 0  6 7 0  6.5 7 0  7 7 0  7.5 7 0  8 7 0  8.5 7 0  9 7 0  9.5 7 0  10 7 0  10.5 7 0  11 7 0  11.5 7 0  12 7 0  12.5 7 0  13 7 0  13.5 7 0  14 7 0  14.5 7 0  15 7 0  15.5 7 0  16 7 0  16.5 7 0  17 7 0  17.5 7 0  18 7 0  18.5 7 0  19 7 0  19.5 7 0  20 7 0  0 7.5 0  0.5 7.5 0  1 7.5 0  1.5 7.5 0  2 7.5 0  2.5 7.5 0  3 7.5 0  3.5 7.5 0  4 7.5 0  4.5 7.5 0  5 7.5 0  5.5 7.5 0  6 7.5 0  6.5 7.5 0  7 7.5 0  7.5 7.5 0  8 7.5 0  8.5 7.5 0  9 7.5 0  9.5 7.5 0  10 7.5 0  10.5 7.5 0  11 7.5 0  11.5 7.5 0  12 7.5 0  12.5 7.5 0  13 7.5 0  13.5 7.5 0  14 7.5 0  14.5 7.5 0  15 7.5 0  15.5 7.5 0  16 7.5 0  16.5 7.5 0  17 7.5 0  17.5 7.5 0  18 7.5 0  18.5 7.5 0  19 7.5 0  19.5 7.5 0  20 7.5 0  0 8 0  0.5 8 0  1 8 0  1.5 8 0  2 8 0  2.5 8 0  3 8 0  3.5 8 0  4 8 0  4.5 8 0  5 8 0  5.5 8 0  6 8 0  6.5 8 0  7 8 0  7.5 8 0  8 8 0  8.5 8 0  9 8 0  9.5 8 0  10 8 0  10.5 8 0  11 8 0  11.5 8 0  12 8 0  12.5 8 0  13 8 0  13.5 8 0  14 8 0  14.5 8 0  15 8 0  15.5 8 0  16 8 0  16.5 8 0  17 8 0  17.5 8 0  18 8 0  18.5 8 0  19 8 0  19.5 8 0  20 8 0  0 8.5 0  0.5 8.5 0  1 8.5 0  1.5 8.5 0  2 8.5 0  2.5 8.5 0  3 8.5 0  3.5 8.5 0  4 8.5 0  4.5 8.5 0  5 8.5 0  5.5 8.5 0  6 8.5 0  6.5 8.5 0  7 8.5 0  7.5 8.5 0  8 8.5 0  8.5 8.5 0  9 8.5 0  9.5 8.5 0  10 8.5 0  10.5 8.5 0  11 8.5 0  11.5 8.5 0  12 8.5 0  12.5 8.5 0  13 8.5 0  13.5 8.5 0  14 8.5 0  14.5 8.5 0  15 8.5 0  15.5 8.5 0  16 8.5 0  16.5 8.5 0  17 8.5 0  17.5 8.5 0  18 8.5 0  18.5 8.5 0  19 8.5 0  19.5 8.5 0  20 8.5 0  0 9 0  0.5 9 0  1 9 0  1.5 9 0  2 9 0  2.5 9 0  3 9 0  3.5 9 0  4 9 0  4.5 9 0  5 9 0  5.5 9 0  6 9 0  6.5 9 0  7 9 0  7.5 9 0  8 9 0  8.5 9 0  9 9 0  9.5 9 0  10 9 0  10.5 9 0  11 9 0  11.5 9 0  12 9 0  12.5 9 0  13 9 0  13.5 9 0  14 9 0  14.5 9 0  15 9 0  15.5 9 0  16 9 0  16.5 9 0  17 9 0  17.5 9 0  18 9 0  18.5 9 0  19 9 0  19.5 9 0  20 9 0  0 9.5 0  0.5 9.5 0  1 9.5 0  1.5 9.5 0  2 9.5 0  2.5 9.5 0  3 9.5 0  3.5 9.5 0  4 9.5 0  4.5 9.5 0  5 9.5 0  5.5 9.5 0  6 9.5 0  6.5 9.5 0  7 9.5 0  7.5 9.5 0  8 9.5 0  8.5 9.5 0  9 9.5 0  9.5 9.5 0  10 9.5 0  10.5 9.5 0  11 9.5 0  11.5 9.5 0  12 9.5 0  12.5 9.5 0  13 9.5 0  13.5 9.5 0  14 9.5 0  14.5 9.5 0  15 9.5 0  15.5 9.5 0  16 9.5 0  16.5 9.5 0  17 9.5 0  17.5 9.5 0  18 9.5 0  18.5 9.5 0  19 9.5 0  19.5 9.5 0  20 9.5 0  0 10 0  0.5 10 0  1 10 0  1.5 10 0  2 10 0  2.5 10 0  3 10 0  3.5 10 0  4 10 0  4.5 10 0  5 10 0  5.5 10 0  6 10 0  6.5 10 0  7 10 0  7.5 10 0  8 10 0  8.5 10 0  9 10 0  9.5 10 0  10 10 0  10.5 10 0  11 10 0  11.5 10 0  12 10 0  12.5 10 0  13 10 0  13.5 10 0  14 10 0  14.5 10 0  15 10 0  15.5 10 0  16 10 0  16.5 10 0  17 10 0  17.5 10 0  18 10 0  18.5 10 0  19 10 0  19.5 10 0  20 10 0  0 10.5 0  0.5 10.5 0  1 10.5 0  1.5 10.5 0  2 10.5 0  2.5 10.5 0  3 10.5 0  3.5 10.5 0  4 10.5 0  4.5 10.5 0  5 10.5 0  5.5 10.5 0  6 10.5 0  6.5 10.5 0  7 10.5 0  7.5 10.5 0  8 10.5 0  8.5 10.5 0  9 10.5 0  9.5 10.5 0  10 10.5 0  10.5 10.5 0  11 10.5 0  11.5 10.5 0  12 10.5 0  12.5 10.5 0  13 10.5 0  13.5 10.5 0  14 10.5 0  14.5 10.5 0  15 10.5 0  15.5 10.5 0  16 10.5 0  16.5 10.5 0  17 10.5 0  17.5 10.5 0  18 10.5 0  18.5 10.5 0  19 10.5 0  19.5 10.5 0  20 10.5 0  0 11 0  0.5 11 0  1 11 0  1.5 11 0  2 11 0  2.5 11 0  3 11 0  3.5 11 0  4 11 0  4.5 11 0  5 11 0  5.5 11 0  6 11 0  6.5 11 0  7 11 0  7.5 11 0  8 11 0  8.5 11 0  9 11 0  9.5 11 0  10 11 0  10.5 11 0  11 11 0  11.5 11 0  12 11 0  12.5 11 0  13 11 0  13.5 11 0  14 11 0  14.5 11 0  15 11 0  15.5 11 0  16 11 0  16.5 11 0  17 11 0  17.5 11 0  18 11 0  18.5 11 0  19 11 0  19.5 11 0  20 11 0  0 11.5 0  0.5 11.5 0  1 11.5 0  1.5 11.5 0  2 11.5 0  2.5 11.5 0  3 11.5 0  3.5 11.5 0  4 11.5 0  4.5 11.5 0  5 11.5 0  5.5 11.5 0  6 11.5 0  6.5 11.5 0  7 11.5 0  7.5 11.5 0  8 11.5 0  8.5 11.5 0  9 11.5 0  9.5 11.5 0  10 11.5 0  10.5 11.5 0  11 11.5 0  11.5 11.5 0  12 11.5 0  12.5 11.5 0  13 11.5 0  13.5 11.5 0  14 11.5 0  14.5 11.5 0  15 11.5 0  15.5 11.5 0  16 11.5 0  16.5 11.5 0  17 11.5 0  17.5 11.5 0  18 11.5 0  18.5 11.5 0  19 11.5 0  19.5 11.5 0  20 11.5 0  0 12 0  0.5 12 0  1 12 0  1.5 12 0  2 12 0  2.5 12 0  3 12 0  3.5 12 0  4 12 0  4.5 12 0  5 12 0  5.5 12 0  6 12 0  6.5 12 0  7 12 0  7.5 12 0  8 12 0  8.5 12 0  9 12 0  9.5 12 0  10 12 0  10.5 12 0  11 12 0  11.5 12 0  12 12 0  12.5 12 0  13 12 0  13.5 12 0  14 12 0  14.5 12 0  
[...]
<PointData  Vectors="f_5173-0"> 
<DataArray  type="Float64"  Name="f_5173-0"  NumberOfComponents="3" format="ascii">0.0000000000000000e+00 0.0000000000000000e+00 0.0000000000000000e+00  -3.7648383007239571e-07 0.0000000000000000e+00 0.0000000000000000e+00  -2.0127348029041637e-06 0.0000000000000000e+00 0.0000000000000000e+00  -6.4638841581889108e-06 0.0000000000000000e+00 0.0000000000000000e+00  -1.5119765657941840e-05 0.0000000000000000e+00 0.0000000000000000e+00  -2.9347321220052323e-05 0.0000000000000000e+00 0.0000000000000000e+00  -5.0491272965701496e-05 0.0000000000000000e+00 0.0000000000000000e+00  -7.9866130014401437e-05 0.0000000000000000e+00 0.0000000000000000e+00  -1.1874814554369264e-04 0.0000000000000000e+00 0.0000000000000000e+00  -1.6836715887411026e-04 0.0000000000000000e+00 0.0000000000000000e+00  -2.2989802618327232e-04 0.0000000000000000e+00 0.0000000000000000e+00  -3.0445148068274780e-04 0.0000000000000000e+00 0.0000000000000000e+00  -3.9306432687329106e-04 0.0000000000000000e+00 0.0000000000000000e+00  -4.9668889255838464e-04 0.0000000000000000e+00 0.0000000000000000e+00  -6.1618165278584192e-04 0.0000000000000000e+00 0.0000000000000000e+00  -7.5229089500585856e-04 0.0000000000000000e+00 0.0000000000000000e+00  -9.0564319186425856e-04 0.0000000000000000e+00 0.0000000000000000e+00  -1.0767282437728705e-03 0.0000000000000000e+00 0.0000000000000000e+00  -1.2658812727504324e-03 0.0000000000000000e+00 0.0000000000000000e+00  -1.4732614652934108e-03 0.0000000000000000e+00 0.0000000000000000e+00  -1.6988237658444416e-03 0.0000000000000000e+00 0.0000000000000000e+00  -1.9422792721218093e-03 0.0000000000000000e+00 0.0000000000000000e+00  -2.2030360369690530e-03 0.0000000000000000e+00 0.0000000000000000e+00  -2.4801063952712690e-03 0.0000000000000000e+00 0.0000000000000000e+00  -2.7719577400026583e-03 0.0000000000000000e+00 0.0000000000000000e+00  -3.0762691292790514e-03 0.0000000000000000e+00 0.0000000000000000e+00  -3.3895336810441045e-03 0.0000000000000000e+00 0.0000000000000000e+00  -3.7064131375024842e-03 0.0000000000000000e+00 0.0000000000000000e+00  -4.0187024601596637e-03 0.0000000000000000e+00 0.0000000000000000e+00  -4.3136951493060243e-03 0.0000000000000000e+00 0.0000000000000000e+00  -4.5716518704313211e-03 0.0000000000000000e+00 0.0000000000000000e+00  -4.7619671046261556e-03 0.0000000000000000e+00 0.0000000000000000e+00  -4.8375081773946076e-03 0.0000000000000000e+00 0.0000000000000000e+00  -4.7264832994541612e-03 0.0000000000000000e+00 0.0000000000000000e+00  -4.3211014914127802e-03 0.0000000000000000e+00 0.0000000000000000e+00  -3.4622352447364279e-03 0.0000000000000000e+00 0.0000000000000000e+00  -1.9192775883693674e-03 0.0000000000000000e+00 0.0000000000000000e+00  6.3567901407593573e-04 0.0000000000000000e+00 0.0000000000000000e+00  4.6605523563485419e-03 0.0000000000000000e+00 0.0000000000000000e+00  1.0785436515796708e-02 0.0000000000000000e+00 0.0000000000000000e+00  1.9874750238490949e-02 0.0000000000000000e+00 0.0000000000000000e+00  0.0000000000000000e+00 -3.7648382971150361e-07 0.0000000000000000e+00  4.8595405443136113e-07 4.8595405528556728e-07 0.0000000000000000e+00  -4.9167628405759606e-07 2.6625799363624824e-06 0.0000000000000000e+00  -4.2583585246522912e-06 6.1808762097311012e-06 0.0000000000000000e+00  -1.2216714267812559e-05 1.1064927808618585e-05 0.0000000000000000e+00  -2.5743551556417994e-05 1.7307160107616163e-05 0.0000000000000000e+00  -4.6187095676784681e-05 2.4883265660605892e-05 0.0000000000000000e+00  -7.4863361569070885e-05 3.3758928733448136e-05 0.0000000000000000e+00  -1.1304976034737070e-04 4.3891613750514973e-05 0.0000000000000000e+00  -1.6197745790051622e-04 5.5230632888114045e-05 0.0000000000000000e+00  -2.2282297024977168e-04 6.7716678943483547e-05 0.0000000000000000e+00  -2.9669908249986858e-04 8.1281195292717758e-05 0.0000000000000000e+00  -3.8464506748109604e-04 9.5845700436333542e-05 0.0000000000000000e+00  -4.8761614779188427e-04 1.1132111377976109e-04 0.0000000000000000e+00  -6.0647212012427093e-04 1.2760711204328702e-04 0.0000000000000000e+00  -7.4196501158159227e-04 1.4459154317918469e-04 0.0000000000000000e+00  -8.9472553378386094e-04 1.6214992584084715e-04 0.0000000000000000e+00  -1.0652478962543117e-03 1.8014506378691847e-04 0.0000000000000000e+00  -1.2538721604658692e-03 1.9842680508970318e-04 0.0000000000000000e+00  -1.4607626328611975e-03 2.1683197539918710e-04 0.0000000000000000e+00  -1.6858795991839030e-03 2.3518451277109248e-04 0.0000000000000000e+00  -1.9289396522453755e-03 2.5329582935321800e-04 0.0000000000000000e+00  -2.1893564172332349e-03 2.7096542454341140e-04 0.0000000000000000e+00  -2.4661477890674664e-03 2.8798177786022884e-04 0.0000000000000000e+00  -2.7577865950571732e-03 3.0412356308606476e-04 0.0000000000000000e+00  -3.0619570423772568e-03 3.1916125561517463e-04 0.0000000000000000e+00  -3.3751568673010888e-03 3.3285926047362186e-04 0.0000000000000000e+00  -3.6920515060473009e-03 3.4497877662121505e-04 0.0000000000000000e+00  -4.0044380609109507e-03 3.5528173148822767e-04 0.0000000000000000e+00  -4.2996096467184256e-03 3.6353624656766377e-04 0.0000000000000000e+00  -4.5578225788222518e-03 3.6952417096500380e-04 0.0000000000000000e+00  -4.7484609895265817e-03 3.7305113357227916e-04 0.0000000000000000e+00  -4.8243730486876605e-03 3.7395915382190323e-04 0.0000000000000000e+00  -4.7137350346558035e-03 3.7214094579385022e-04 0.0000000000000000e+00  -4.3087051391905310e-03 3.6755357262207005e-04 0.0000000000000000e+00  -3.4500756088038332e-03 3.6022710837822384e-04 0.0000000000000000e+00  -1.9071110117498732e-03 3.5026088394418513e-04 0.0000000000000000e+00  6.4830134676101281e-04 3.3778983611914984e-04 0.0000000000000000e+00  4.6743572361159971e-03 3.2285295550375060e-04 0.0000000000000000e+00  1.0800950516319826e-02 3.0484990726725264e-04 0.0000000000000000e+00  1.9883768956089801e-02 2.8023888448397758e-04 0.0000000000000000e+00  0.0000000000000000e+00 -2.0127348048971140e-06 0.0000000000000000e+00  2.6625799382230928e-06 -4.9167628445975512e-07 0.0000000000000000e+00  3.8044169416985704e-06 3.8044169412967939e-06 0.0000000000000000e+00  2.1392044789224842e-06 1.0855074019950327e-05 0.0000000000000000e+00  -3.7180688229253371e-06 2.0647202076828843e-05 0.0000000000000000e+00  -1.5142154841824440e-05 3.3150059893856475e-05 0.0000000000000000e+00  -3.3483654778514907e-05 4.8315099040915376e-05 0.0000000000000000e+00  -6.0061757087472758e-05 6.6076527722914449e-05 0.0000000000000000e+00  -9.6157439976839583e-05 8.6351750404217579e-05 0.0000000000000000e+00  -1.4300605976756109e-04 1.0904120069331718e-04 0.0000000000000000e+00  -2.0178919416652234e-04 1.3402763107639060e-04 0.0000000000000000e+00  -2.7362573731149381e-04 1.6117506056762649e-04 0.0000000000000000e+00  -3.5956223061879312e-04 1.9032754672883241e-04 0.0000000000000000e+00  -4.6056238841279186e-04 2.2130789818003256e-04 0.0000000000000000e+00  -5.7749574602106917e-04 2.5391641271181223e-04 0.0000000000000000e+00  -7.1112530310501933e-04 2.8792971271518166e-04 0.0000000000000000e+00  -8.6209392808255512e-04 3.2309974541308139e-04 0.0000000000000000e+00  -1.0309090840209490e-03 3.5915301554849361e-04 0.0000000000000000e+00  -1.2179250561505995e-03 3.9579011900798866e-04 0.0000000000000000e+00  -1.4233211783208973e-03 4.3268564646908132e-04 0.0000000000000000e+00  -1.6470733595401656e-03 4.6948852560676281e-04 0.0000000000000000e+00  -1.8889141595821084e-03 5.0582287032412587e-04 0.0000000000000000e+00  -2.1482732096849626e-03 5.4128940770931350e-04 0.0000000000000000e+00  -2.4241840743029169e-03 5.7546756299307130e-04 0.0000000000000000e+00  -2.7151344299230322e-03 6.0791830635402780e-04 0.0000000000000000e+00  -3.0188218542773820e-03 6.3818791240378005e-04 0.0000000000000000e+00  -3.3317550359767529e-03 6.6581286262740451e-04 0.0000000000000000e+00  -3.6486065700304226e-03 6.9032623835247003e-04 0.0000000000000000e+00  -3.9611749154044437e-03 7.1126609727221969e-04 0.0000000000000000e+00  -4.2567458899120747e-03 7.2818646114444947e-04 0.0000000000000000e+00  -4.5155560092703185e-03 7.4067157670703872e-04 0.0000000000000000e+00  -4.7069522671585925e-03 7.4835388415197710e-04 0.0000000000000000e+00  -4.7837228312552875e-03 7.5093539102100257e-04 0.0000000000000000e+00  -4.6739555712493139e-03 7.4821056382204517e-04 0.0000000000000000e+00  -4.2696873435658349e-03 7.4008591016985173e-04 0.0000000000000000e+00  -3.4115542787197658e-03 7.2658602918171714e-04 0.0000000000000000e+00  -1.8686354477872474e-03 7.0782465224447178e-04 0.0000000000000000e+00  6.8736436784246578e-04 6.8389127088537950e-04 0.0000000000000000e+00  4.7146763848689918e-03 6.5453009035220863e-04 0.0000000000000000e+00  1.0842502239401397e-02 6.1831552566831620e-04 0.0000000000000000e+00  1.9923346809472376e-02 5.7082350627286730e-04 0.0000000000000000e+00  0.0000000000000000e+00 -6.4638841581568489e-06 0.0000000000000000e+00  6.1808762083219924e-06 -4.2583585243054262e-06 0.0000000000000000e+00  1.0855074016452339e-05 2.1392044804928774e-06 0.0000000000000000e+00  1.2701112234218617e-05 1.2701112235488663e-05 0.0000000000000000e+00  1.0348792436611596e-05 2.7391077614076721e-05 0.0000000000000000e+00  2.4267791232418817e-06 4.6154489052147424e-05 0.0000000000000000e+00  -1.2416235425936032e-05 6.8914694711360918e-05 0.0000000000000000e+00  -3.5502506370575441e-05 9.5572410300002604e-05 0.0000000000000000e+00  -6.8117847034044587e-05 1.2600489212723147e-04 0.0000000000000000e+00  -1.1150408674442769e-04 1.6006469432970239e-04 0.0000000000000000e+00  -1.6685098482060637e-04 1.9757812258402516e-04 0.0000000000000000e+00  -2.3528745474858824e-04 2.3834346743038378e-04 0.0000000000000000e+00  -3.1787201658743761e-04 2.8212909796663231e-04 0.0000000000000000e+00  -4.1558240805637803e-04 3.2867150425324522e-04 0.0000000000000000e+00  -5.2930426881863963e-04 3.7767338228075954e-04 0.0000000000000000e+00  -6.5981876301979855e-04 4.2880185989595189e-04 0.0000000000000000e+00  -8.0778889985426189e-04 4.8168696641579152e-04 0.0000000000000000e+00  -9.7374410709280003e-04 5.3592045371918739e-04 0.0000000000000000e+00  -1.1580622325265927e-03 5.9105508129710799e-04 0.0000000000000000e+00  -1.3609474655056453e-03 6.4660448173920490e-04 0.0000000000000000e+00  -1.5824014735118022e-03 7.0204372643797028e-04 0.0000000000000000e+00  -1.8221829937273696e-03 7.5681071468135111e-04 0.0000000000000000e+00  -2.0797476593182409e-03 8.1030851562413099e-04 0.0000000000000000e+00  -2.3541541270766467e-03 8.6190880575649569e-04 0.0000000000000000e+00  -2.6439133312073045e-03 9.1095657099382621e-04 0.0000000000000000e+00  -2.9467430733624228e-03 9.5677628987062241e-04 0.0000000000000000e+00  -3.2591676354046090e-03 9.9867988753807964e-04 0.0000000000000000e+00  -3.5758684159944861e-03 1.0359768482999870e-03 0.0000000000000000e+00  -3.8886429809133777e-03 1.0679869761924519e-03 0.0000000000000000e+00  -4.1847627474301723e-03 1.0940563439285184e-03 0.0000000000000000e+00  -4.4444315899476580e-03 1.1135768568825402e-03 0.0000000000000000e+00  -4.6369402438961637e-03 1.1260093829457143e-03 0.0000000000000000e+00  -4.7149917851705882e-03 1.1309092458506856e-03 0.0000000000000000e+00  -4.6065567117551569e-03 1.1279505673443722e-03 0.0000000000000000e+00  -4.2035234481461667e-03 1.1169417007028033e-03 0.0000000000000000e+00  -3.3463599682069128e-03 1.0978164434144349e-03 0.0000000000000000e+00  -1.8039908430573261e-03 1.0705722390794781e-03 0.0000000000000000e+00  7.5193541518974577e-04 1.0351031303885263e-03 0.0000000000000000e+00  4.7794041150572867e-03 9.9084147084141654e-04 0.0000000000000000e+00  1.0906629536209059e-02 9.3611305164968510e-04 0.0000000000000000e+00  1.9983825919874104e-02 8.6731762965058096e-04 0.0000000000000000e+00  0.0000000000000000e+00 -1.5119765658069644e-05 0.0000000000000000e+00  1.1064927808062413e-05 -1.2216714266386268e-05 0.0000000000000000e+00  2.0647202077708175e-05 -3.7180688222727541e-06 0.0000000000000000e+00  2.7391077615669855e-05 1.0348792435326854e-05 0.0000000000000000e+00  2.9931038951046705e-05 2.9931038951098245e-05 0.0000000000000000e+00  2.6898100319760947e-05 5.4952675695520760e-05 0.0000000000000000e+00  1.6939735971903682e-05 8.5310737509387228e-05 0.0000000000000000e+00  -1.2700849055298052e-06 1.2087368381159607e-04 0.0000000000000000e+00  -2.9023253176882931e-05 1.6147980487422599e-04 0.0000000000000000e+00  -6.7570042983547011e-05 2.0693526152641754e-04 0.0000000000000000e+00  -1.1811117377315481e-04 2.5701178297908659e-04 0.0000000000000000e+00  -1.8178919566677571e-04 3.1144412193935534e-04 0.0000000000000000e+00  -2.5967908417584242e-04 3.6992736874192597e-04 0.0000000000000000e+00  -3.5277795224092611e-04 4.3211422644252515e-04 0.0000000000000000e+00  -4.6199377605592575e-04 4.9761235648986088e-04 0.0000000000000000e+00  -5.8813298479142375e-04 5.6598191593699250e-04 0.0000000000000000e+00  -7.3188666066401141e-04 6.3673342017188383e-04 0.0000000000000000e+00  -8.9381489226793569e-04 7.0932607761096489e-04 0.0000000000000000e+00  -1.0743284446590692e-03 7.8316675445152389e-04 0.0000000000000000e+00  -1.2736662269848202e-03 8.5760973753512462e-04 0.0000000000000000e+00  -1.4918658403155704e-03 9.3195747220567514e-04 0.0000000000000000e+00  -1.7287224301064735e-03 1.0054624598621578e-03 0.0000000000000000e+00  -1.9837276009658567e-03 1.0773305091493505e-03 0.0000000000000000e+00  -2.2559744263341923e-03 1.1467255478304695e-03 0.0000000000000000e+00  -2.5440053255062433e-03 1.2127762235250022e-03 0.0000000000000000e+00  -2.8455649411609886e-03 1.2745845541402947e-03 0.0000000000000000e+00  -3.1571976004835119e-03 1.3312369326721556e-03 0.0000000000000000e+00  -3.4735952405592001e-03 1.3818178360144714e-03 0.0000000000000000e+00  -3.7865530832691336e-03 1.4254266035729076e-03 0.0000000000000000e+00  -4.0833232614743958e-03 1.4611975726452158e-03 0.0000000000000000e+00  -4.3440688769079963e-03 1.4883235614582529e-03 0.0000000000000000e+00  -4.5380139659276734e-03 1.5060819743811552e-03 0.0000000000000000e+00  -4.6177659297446513e-03 1.5138613558606212e-03 0.0000000000000000e+00  -4.5111712976024752e-03 1.5111835949721251e-03 0.0000000000000000e+00  -4.1099746416093808e-03 1.4977125932978830e-03 0.0000000000000000e+00  -3.2545030661037446e-03 1.4732334144414434e-03 0.0000000000000000e+00  -1.7135918736798188e-03 1.4375765846708593e-03 0.0000000000000000e+00  8.4105642606075999e-04 1.3904527805208818e-03 0.0000000000000000e+00  4.8670799168203617e-03 1.3311652350926756e-03 0.0000000000000000e+00  1.0991887602575735e-02 1.2582166890065950e-03 0.0000000000000000e+00  2.0064602826100196e-02 1.1690001775579171e-03 0.0000000000000000e+00  0.0000000000000000e+00 -2.9347321220301957e-05 0.0000000000000000e+00  1.7307160106773104e-05 -2.5743551554697907e-05 0.0000000000000000e+00  3.3150059892983273e-05 -1.5142154843044733e-05 0.0000000000000000e+00  4.6154489053272087e-05 2.4267791218201894e-06 0.0000000000000000e+00  5.4952675698834089e-05 2.6898100320783902e-05 0.0000000000000000e+00  5.8176753824570243e-05 5.8176753822907064e-05 0.0000000000000000e+00  5.4472560687964552e-05 9.6135535422036907e-05 0.0000000000000000e+00  4.2509606604992077e-05 1.4061284703131990e-04 0.0000000000000000e+00  2.0988728348843978e-05 1.9141039990061860e-04 0.0000000000000000e+00  -1.1350610354919344e-05 2.4829055365510486e-04 0.0000000000000000e+00  -5.5722628133128084e-05 3.1097328204656246e-04 0.0000000000000000e+00  -1.1328685491693713e-04 3.7913285057979617e-04 0.0000000000000000e+00  -1.8513893035663296e-04 4.5239431602553414e-04 0.0000000000000000e+00  -2.7230045797933968e-04 5.3032996962572602e-04 0.0000000000000000e+00  -3.7570779368465372e-04 6.1245585846928137e-04 0.0000000000000000e+00  -4.9619960099224892e-04 6.9822853545203575e-04 0.0000000000000000e+00  -6.3450290184728024e-04 7.8704220644730907e-04 0.0000000000000000e+00  -7.9121714790101488e-04 8.7822646223550418e-04 0.0000000000000000e+00  -9.6679545789766716e-04 9.7104480117127538e-04 0.0000000000000000e+00  -1.1615214839086206e-03 1.0646941655543048e-03 0.0000000000000000e+00  -1.3754791703504930e-03 1.1583057294680650e-03 0.0000000000000000e+00  -1.6085106092556148e-03 1.2509471884666744e-03 0.0000000000000000e+00  -1.8601537243096258e-03 1.3416268122945372e-03 0.0000000000000000e+00  -2.1295457836536724e-03 1.4292995316061668e-03 0.0000000000000000e+00  -2.4152694708670340e-03 1.5128753392654795e-03 0.0000000000000000e+00  -2.7151035929002493e-03 1.5912302951184786e-03 0.0000000000000000e+00  -3.0256179477038507e-03 1.6632204243064630e-03 0.0000000000000000e+00  -3.3415181842414744e-03 1.7276987766852228e-03 0.0000000000000000e+00  -3.6545979464286207e-03 1.7835358339107160e-03 0.0000000000000000e+00  -3.9520886411370101e-03 1.8296432442824631e-03 0.0000000000000000e+00  -4.2141097074628207e-03 1.8650004226893121e-03 0.0000000000000000e+00  -4.4098157016752579e-03 1.8886827036513956e-03 0.0000000000000000e+00  -4.4917182733419077e-03 1.8998882444563471e-03 0.0000000000000000e+00  -4.3875463798339620e-03 1.8979584653898947e-03 0.0000000000000000e+00  -3.9889182680523669e-03 1.8823832649474319e-03 0.0000000000000000e+00  -3.1360526605121596e-03 1.8527777023064991e-03 0.0000000000000000e+00  -1.5977401737468841e-03 1.8088125690914308e-03 0.0000000000000000e+00  9.5423150478157249e-04 1.7500812399246421e-03 0.0000000000000000e+00  4.9772168275406762e-03 1.6758981902278770e-03 0.0000000000000000e+00  1.1098151131530088e-02 1.5850633997135548e-03 0.0000000000000000e+00  2.0165816235981453e-02 1.4756873855784509e-03 0.0000000000000000e+00  0.0000000000000000e+00 -5.0491272966422227e-05 0.0000000000000000e+00  2.4883265661089788e-05 -4.6187095677114326e-05 0.0000000000000000e+00  4.8315099041447211e-05 -3.3483654779051262e-05 0.0000000000000000e+00  6.8914694711409599e-05 -1.2416235427786818e-05 0.0000000000000000e+00  8.5310737509122750e-05 1.6939735972862065e-05 0.0000000000000000e+00  9.6135535420437696e-05 5.4472560690357027e-05 0.0000000000000000e+00  1.0003317271838930e-04 1.0003317272073090e-04 0.0000000000000000e+00  9.5668386472469796e-05 1.5343258682187929e-04 0.0000000000000000e+00  8.1733916519298469e-05 2.1443896712733848e-04 0.0000000000000000e+00  5.6957501620198677e-05 2.8277425474235559e-04 0.0000000000000000e+00  2.0109231675949499e-05 3.5811036781581516e-04 0.0000000000000000e+00  -2.9990406277127201e-05 4.4006505762258347e-04 0.0000000000000000e+00  -9.4461602020357084e-05 5.2819753658209429e-04 0.0000000000000000e+00  -1.7435527626694493e-04 6.2200401489503345e-04 0.0000000000000000e+00  -2.7064197109343701e-04 7.2091330257538608e-04 0.0000000000000000e+00  -3.8419938705963852e-04 8.2428265638893200e-04 0.0000000000000000e+00  -5.1579827291915129e-04 9.3139407601533898e-04 0.0000000000000000e+00  -6.6608616894925496e-04 1.0414512797339349e-03 0.0000000000000000e+00  -8.3556812510090475e-04 1.1535776159222217e-03 0.0000000000000000e+00  -1.0245828318919863e-03 1.2668151910115125e-03 0.0000000000000000e+00  -1.2332714029378408e-03 1.3801255161480929e-03 0.0000000000000000e+00  -1.4615339872818718e-03 1.4923919922577760e-03 0.0000000000000000e+00  -1.7089659178312416e-03 1.6024245653430442e-03 0.0000000000000000e+00  -1.9747593686378863e-03 1.7089668886864642e-03 0.0000000000000000e+00  -2.2575472228376354e-03 1.8107063243628845e-03 0.0000000000000000e+00  -2.5551512062872788e-03 1.9062870971186057e-03 0.0000000000000000e+00  -2.8641738008312783e-03 1.9943268698059181e-03 0.0000000000000000e+00  -3.1793398000456679e-03 2.0734369211422919e-03 0.0000000000000000e+00  -3.4924449121952975e-03 2.1422459394041305e-03 0.0000000000000000e+00  -3.7907020189000074e-03 2.1994271427578363e-03 0.0000000000000000e+00  -4.0541884952793534e-03 2.2437279134382335e-03 0.0000000000000000e+00  -4.2519918275281338e-03 2.2740002741187537e-03 0.0000000000000000e+00  -4.3365330540646157e-03 2.2892292072489370e-03 0.0000000000000000e+00  -4.2354334302067975e-03 2.2885539179295453e-03 0.0000000000000000e+00  -3.8402003584134228e-03 2.2712747112588424e-03 0.0000