<?xml version="1.0"?>
<VTKFile type="UnstructuredGrid"  version="0.1"  >
<UnstructuredGrid>
<Piece  NumberOfPoints="1681" NumberOfCells="3200">
<Points>
<DataArray  type="Float64"  NumberOfComponents="3"  format="ascii">0 0 0  0.5 0 0  1 0 0  1.5 0 0  2 0 0  2.5 0 0  3 0 0  3.5 0 0  4 0 0  4.5 0 0  5 0 0  5.5 0 0  6 0 0  6.5 0 0  7 0 0  7.5 0 0  8 0 0  8.5 0 0  9 0 0  9.5 0 0  10 0 0  10.5 0 0  11 0 0  11.5 0 0  12 0 0  12.5 0 0  13 0 0  13.5 0 0  14 0 0  14.5 0 0  15 0 0  15.5 0 0  16 0 0  16.5 0 0  17 0 0  17.5 0 0  18 0 0  18.5 0 0  19 0 0  19.5 0 0  20 0 0  0 0.5 0  0.5 0.5 0  1 0.5 0  1.5 0.5 0  2 0.5 0  2.5 0.5 0  3 0.5 0  3.5 0.5 0  4 0.5 0  4.5 0.5 0  5 0.5 0  5.5 0.5 0  6 0.5 0  6.5 0.5 0  7 0.5 0  7.5 0.5 0  8 0.5 0  8.5 0.5 0  9 0.5 0  9.5 0.5 0  10 0.5 0  10.5 0.5 0  11 0.5 0  11.5 0.5 0  12 0.5 0  12.5 0.5 0  13 0.5 0  13.5 0.5 0  14 0.5 0  14.5 0.5 0  15 0.5 0  15.5 0.5 0  16 0.5 0  16.5 0.5 0  17 0.5 0  17.5 0.5 0  18 0.5 0  18.5 0.5 0  19 0.5 0  19.5 0.5 0  20 0.5 0  0 1 0  0.5 1 0  1 1 0  1.5 1 0  2 1 0  2.5 1 0  3 1 0  3.5 1 0  4 1 0  4.5 1 0  5 1 0  5.5 1 0  6 1 0  6.5 1 0  7 1 0  7.5 1 0  8 1 0  8.5 1 0  9 1 0  9.5 1 0  10 1 0  10.5 1 0  11 1 0  11.5 1 0  12 1 0  12.5 1 0  13 1 0  13.5 1 0  14 1 0  14.5 1 0  15 1 0  15.5 1 0  16 1 0  16.5 1 0  17 1 0  17.5 1 0  18 1 0  18.5 1 0  19 1 0  19.5 1 0  20 1 0  0 1.5 0  0.5 1.5 0  1 1.5 0  1.5 1.5 0  2 1.5 0  2.5 1.5 0  3 1.5 0  3.5 1.5 0  4 1.5 0  4.5 1.5 0  5 1.5 0  5.5 1.5 0  6 1.5 0  6.5 1.5 0  7 1.5 0  7.5 1.5 0  8 1.5 0  8.5 1.5 0  9 1.5 0  9.5 1.5 0  10 1.5 0  10.5 1.5 0  11 1.5 0  11.5 1.5 0  12 1.5 0  12.5 1.5 0  13 1.5 0  13.5 1.5 0  14 1.5 0  14.5 1.5 0  15 1.5 0  15.5 1.5 0  16 1.5 0  16.5 1.5 0  17 1.5 0  17.5 1.5 0  18 1.5 0  18.5 1.5 0  19 1.5 0  19.5 1.5 0  20 1.5 0  0 2 0  0.5 2 0  1 2 0  1.5 2 0  2 2 0  2.5 2 0  3 2 0  3.5 2 0  4 2 0  4.5 2 0  5 2 0  5.5 2 0  6 2 0  6.5 2 0  7 2 0  7.5 2 0  8 2 0  8.5 2 0  9 2 0  9.5 2 0  10 2 0  10.5 2 0  11 2 0  11.5 2 0  12 2 0  12.5 2 0  13 2 0  13.5 2 0  14 2 0  14.5 2 0  15 2 0  15.5 2 0  16 2 0  16.5 2 0  17 2 0  17.5 2 0  18 2 0  18.5 2 0  19 2 0  19.5 2 0  20 2 0  0 2.5 0  0.5 2.5 0  1 2.5 0  1.5 2.5 0  2 2.5 0  2.5 2.5 0  3 2.5 0  3.5 2.5 0  4 2.5 0  4.5 2.5 0  5 2.5 0  5.5 2.5 0  6 2.5 0  6.5 2.5 0  7 2.5 0  7.5 2.5 0  8 2.5 0  8.5 2.5 0  9 2.5 0  9.5 2.5 0  10 2.5 0  10.5 2.5 0  11 2.5 0  11.5 2.5 0  12 2.5 0  12.5 2.5 0  13 2.5 0  13.5 2.5 0  14 2.5 0  14.5 2.5 0  15 2.5 0  15.5 2.5 0  16 2.5 0  16.5 2.5 0  17 2.5 0  17.5 2.5 0  18 2.5 0  18.5 2.5 0  19 2.5 0  19.5 2.5 0  20 2.5 0  0 3 0  0.5 3 0  1 3 0  1.5 3 0  2 3 0  2.5 3 0  3 3 0  3.5 3 0  4 3 0  4.5 3 0  5 3 0  5.5 3 0  6 3 0  6.5 3 0  7 3 0  7.5 3 0  8 3 0  8.5 3 0  9 3 0  9.5 3 0  10 3 0  10.5 3 0  11 3 0  11.5 3 0  12 3 0  12.5 3 0  13 3 0  13.5 3 0  14 3 0  14.5 3 0  15 3 0  15.5 3 0  16 3 0  16.5 3 0  17 3 0  17.5 3 0  18 3 0  18.5 3 0  19 3 0  19.5 3 0  20 3 0  0 3.5 0  0.5 3.5 0  1 3.5 0  1.5 3.5 0  2 3.5 0  2.5 3.5 0  3 3.5 0  3.5 3.5 0  4 3.5 0  4.5 3.5 0  5 3.5 0  5.5 3.5 0  6 3.5 0  6.5 3.5 0  7 3.5 0  7.5 3.5 0  8 3.5 0  8.5 3.5 0  9 3.5 0  9.5 3.5 0  10 3.5 0  10.5 3.5 0  11 3.5 0  11.5 3.5 0  12 3.5 0  12.5 3.5 0  13 3.5 0  13.5 3.5 0  14 3.5 0  14.5 3.5 0  15 3.5 0  15.5 3.5 0  16 3.5 0  16.5 3.5 0  17 3.5 0  17.5 3.5 0  18 3.5 0  18.5 3.5 0  19 3.5 0  19.5 3.5 0  20 3.5 0  0 4 0  0.5 4 0  1 4 0  1.5 4 0  2 4 0  2.5 4 0  3 4 0  3.5 4 0  4 4 0  4.5 4 0  5 4 0  5.5 4 0  6 4 0  6.5 4 0  7 4 0  7.5 4 0  8 4 0  8.5 4 0  9 4 0  9.5 4 0  10 4 0  10.5 4 0  11 4 0  11.5 4 0  12 4 0  12.5 4 0  13 4 0  13.5 4 0  14 4 0  14.5 4 0  15 4 0  15.5 4 0  16 4 0  16.5 4 0  17 4 0  17.5 4 0  18 4 0  18.5 4 0  19 4 0  19.5 4 0  20 4 0  0 4.5 0  0.5 4.5 0  1 4.5 0  1.5 4.5 0  2 4.5 0  2.5 4.5 0  3 4.5 0  3.5 4.5 0  4 4.5 0  4.5 4.5 0  5 4.5 0  5.5 4.5 0  6 4.5 0  6.5 4.5 0  7 4.5 0  7.5 4.5 0  8 4.5 0  8.5 4.5 0  9 4.5 0  9.5 4.5 0  10 4.5 0  10.5 4.5 0  11 4.5 0  11.5 4.5 0  12 4.5 0  12.5 4.5 0  13 4.5 0  13.5 4.5 0  14 4.5 0  14.5 4.5 0  15 4.5 0  15.5 4.5 0  16 4.5 0  16.5 4.5 0  17 4.5 0  17.5 4.5 0  18 4.5 0  18.5 4.5 0  19 4.5 0  19.5 4.5 0  20 4.5 0  0 5 0  0.5 5 0  1 5 0  1.5 5 0  2 5 0  2.5 5 0  3 5 0  3.5 5 0  4 5 0  4.5 5 0  5 5 0  5.5 5 0  6 5 0  6.5 5 0  7 5 0  7.5 5 0  8 5 0  8.5 5 0  9 5 0  9.5 5 0  10 5 0  10.5 5 0  11 5 0  11.5 5 0  12 5 0  12.5 5 0  13 5 0  13.5 5 0  14 5 0  14.5 5 0  15 5 0  15.5 5 0  16 5 0  16.5 5 0  17 5 0  17.5 5 0  18 5 0  18.5 5 0  19 5 0  19.5 5 0  20 5 0  0 5.5 0  0.5 5.5 0  1 5.5 0  1.5 5.5 0  2 5.5 0  2.5 5.5 0  3 5.5 0  3.5 5.5 0  4 5.5 0  4.5 5.5 0  5 5.5 0  5.5 5.5 0  6 5.5 0  6.5 5.5 0  7 5.5 0  7.5 5.5 0  8 5.5 0  8.5 5.5 0  9 5.5 0  9.5 5.5 0  10 5.5 0  10.5 5.5 0  11 5.5 0  11.5 5.5 0  12 5.5 0  12.5 5.5 0  13 5.5 0  13.5 5.5 0  14 5.5 0  14.5 5.5 0  15 5.5 0  15.5 5.5 0  16 5.5 0  16.5 5.5 0  17 5.5 0  17.5 5.5 0  18 5.5 0  18.5 5.5 0  19 5.5 0  19.5 5.5 0  20 5.5 0  0 6 0  0.5 6 0  1 6 0  1.5 6 0  2 6 0  2.5 6 0  3 6 0  3.5 6 0  4 6 0  4.5 6 0  5 6 0  5.5 6 0  6 6 0  6.5 6 0  7 6 0  7.5 6 0  8 6 0  8.5 6 0  9 6 0  9.5 6 0  10 6 0  10.5 6 0  11 6 0  11.5 6 0  12 6 0  12.5 6 0  13 6 0  13.5 6 0  14 6 0  14.5 6 0  15 6 0  15.5 6 0  16 6 0  16.5 6 0  17 6 0  17.5 6 0  18 6 0  18.5 6 0  19 6 0  19.5 6 0  20 6 0  0 6.5 0  0.5 6.5 0  1 6.5 0  1.5 6.5 0  2 6.5 0  2.5 6.5 0  3 6.5 0  3.5 6.5 0  4 6.5 0  4.5 6.5 0  5 6.5 0  5.5 6.5 0  6 6.5 0  6.5 6.5 0  7 6.5 0  7.5 6.5 0  8 6.5 0  8.5 6.5 0  9 6.5 0  9.5 6.5 0  10 6.5 0  10.5 6.5 0  11 6.5 0  11.5 6.5 0  12 6.5 0  12.5 6.5 0  13 6.5 0  13.5 6.5 0  14 6.5 0  14.5 6.5 0  15 6.5 0  15.5 6.5 0  16 6.5 0  16.5 6.5 0  17 6.5 0  17.5 6.5 0  18 6.5 0  18.5 6.5 0  19 6.5 0  19.5 6.5 0  20 6.5 0  0 7 0  0.5 7 0  1 7 0  1.5 7 0  2 7 0  2.5 7 0  3 7 0  3.5 7 0  4 7 0  4.5 7 0  5 7 0  5.5 7 0  6 7 0  6.5 7 0  7 7 0  7.5 7 0  8 7 0  8.5 7 0  9 7 0  9.5 7 0  10 7 0  10.5 7 0  11 7 0  11.5 7 0  12 7 0  12.5 7 0  13 7 0  13.5 7 0  14 7 0  14.5 7 0  15 7 0  15.5 7 0  16 7 0  16.5 7 0  17 7 0  17.5 7 0  18 7 0  18.5 7 0  19 7 0  19.5 7 0  20 7 0  0 7.5 0  0.5 7.5 0  1 7.5 0  1.5 7.5 0  2 7.5 0  2.5 7.5 0  3 7.5 0  3.5 7.5 0  4 7.5 0  4.5 7.5 0  5 7.5 0  5.5 7.5 0  6 7.5 0  6.5 7.5 0  7 7.5 0  7.5 7.5 0  8 7.5 0  8.5 7.5 0  9 7.5 0  9.5 7.5 0  10 7.5 0  10.5 7.5 0  11 7.5 0  11.5 7.5 0  12 7.5 0  12.5 7.5 0  13 7.5 0  13.5 7.5 0  14 7.5 0  14.5 7.5 0  15 7.5 0  15.5 7.5 0  16 7.5 0  16.5 7.5 0  17 7.5 0  17.5 7.5 0  18 7.5 0  18.5 7.5 0  19 7.5 0  19.5 7.5 0  20 7.5 0  0 8 0  0.5 8 0  1 8 0  1.5 8 0  2 8 0  2.5 8 0  3 8 0  3.5 8 0  4 8 0  4.5 8 0  5 8 0  5.5 8 0  6 8 0  6.5 8 0  7 8 0  7.5 8 0  8 8 0  8.5 8 0  9 8 0  9.5 8 0  10 8 0  10.5 8 0  11 8 0  11.5 8 0  12 8 0  12.5 8 0  13 8 0  13.5 8 0  14 8 0  14.5 8 0  15 8 0  15.5 8 0  16 8 0  16.5 8 0  17 8 0  17.5 8 0  18 8 0  18.5 8 0  19 8 0  19.5 8 0  20 8 0  0 8.5 0  0.5 8.5 0  1 8.5 0  1.5 8.5 0  2 8.5 0  2.5 8.5 0  3 8.5 0  3.5 8.5 0  4 8.5 0  4.5 8.5 0  5 8.5 0  5.5 8.5 0  6 8.5 0  6.5 8.5 0  7 8.5 0  7.5 8.5 0  8 8.5 0  8.5 8.5 0  9 8.5 0  9.5 8.5 0  10 8.5 0  10.5 8.5 0  11 8.5 0  11.5 8.5 0  12 8.5 0  12.5 8.5 0  13 8.5 0  13.5 8.5 0  14 8.5 0  14.5 8.5 0  15 8.5 0  15.5 8.5 0  16 8.5 0  16.5 8.5 0  17 8.5 0  17.5 8.5 0  18 8.5 0  18.5 8.5 0  19 8.5 0  19.5 8.5 0  20 8.5 0  0 9 0  0.5 9 0  1 9 0  1.5 9 0  2 9 0  2.5 9 0  3 9 0  3.5 9 0  4 9 0  4.5 9 0  5 9 0  5.5 9 0  6 9 0  6.5 9 0  7 9 0  7.5 9 0  8 9 0  8.5 9 0  9 9 0  9.5 9 0  10 9 0  10.5 9 0  11 9 0  11.5 9 0  12 9 0  12.5 9 0  13 9 0  13.5 9 0  14 9 0  14.5 9 0  15 9 0  15.5 9 0  16 9 0  16.5 9 0  17 9 0  17.5 9 0  18 9 0  18.5 9 0  19 9 0  19.5 9 0  20 9 0  0 9.5 0  0.5 9.5 0  1 9.5 0  1.5 9.5 0  2 9.5 0  2.5 9.5 0  3 9.5 0  3.5 9.5 0  4 9.5 0  4.5 9.5 0  5 9.5 0  5.5 9.5 0  6 9.5 0  6.5 9.5 0  7 9.5 0  7.5 9.5 0  8 9.5 0  8.5 9.5 0  9 9.5 0  9.5 9.5 0  10 9.5 0  10.5 9.5 0  11 9.5 0  11.5 9.5 0  12 9.5 0  12.5 9.5 0  13 9.5 0  13.5 9.5 0  14 9.5 0  14.5 9.5 0  15 9.5 0  15.5 9.5 0  16 9.5 0  16.5 9.5 0  17 9.5 0  17.5 9.5 0  18 9.5 0  18.5 9.5 0  19 9.5 0  19.5 9.5 0  20 9.5 0  0 10 0  0.5 10 0  1 10 0  1.5 10 0  2 10 0  2.5 10 0  3 10 0  3.5 10 0  4 10 0  4.5 10 0  5 10 0  5.5 10 0  6 10 0  6.5 10 0  7 10 0  7.5 10 0  8 10 0  8.5 10 0  9 10 0  9.5 10 0  10 10 0  10.5 10 0  11 10 0  11.5 10 0  12 10 0  12.5 10 0  13 10 0  13.5 10 0  14 10 0  14.5 10 0  15 10 0  15.5 10 0  16 10 0  16.5 10 0  17 10 0  17.5 10 0  18 10 0  18.5 10 0  19 10 0  19.5 10 0  20 10 0  0 10.5 0  0.5 10.5 0  1 10.5 0  1.5 10.5 0  2 10.5 0  2.5 10.5 0  3 10.5 0  3.5 10.5 0  4 10.5 0  4.5 10.5 0  5 10.5 0  5.5 10.5 0  6 10.5 0  6.5 10.5 0  7 10.5 0  7.5 10.5 0  8 10.5 0  8.5 10.5 0  9 10.5 0  9.5 10.5 0  10 10.5 0  10.5 10.5 0  11 10.5 0  11.5 10.5 0  12 10.5 0  12.5 10.5 0  13 10.5 0  13.5 10.5 0  14 10.5 0  14.5 10.5 0  15 10.5 0  15.5 10.5 0  16 10.5 0  16.5 10.5 0  17 10.5 0  17.5 10.5 0  18 10.5 0  18.5 10.5 0  19 10.5 0  19.5 10.5 0  20 10.5 0  0 11 0  0.5 11 0  1 11 0  1.5 11 0  2 11 0  2.5 11 0  3 11 0  3.5 11 0  4 11 0  4.5 11 0  5 11 0  5.5 11 0  6 11 0  6.5 11 0  7 11 0  7.5 11 0  8 11 0  8.5 11 0  9 11 0  9.5 11 0  10 11 0  10.5 11 0  11 11 0  11.5 11 0  12 11 0  12.5 11 0  13 11 0  13.5 11 0  14 11 0  14.5 11 0  15 11 0  15.5 11 0  16 11 0  16.5 11 0  17 11 0  17.5 11 0  18 11 0  18.5 11 0  19 11 0  19.5 11 0  20 11 0  0 11.5 0  0.5 11.5 0  1 11.5 0  1.5 11.5 0  2 11.5 0  2.5 11.5 0  3 11.5 0  3.5 11.5 0  4 11.5 0  4.5 11.5 0  5 11.5 0  5.5 11.5 0  6 11.5 0  6.5 11.5 0  7 11.5 0  7.5 11.5 0  8 11.5 0  8.5 11.5 0  9 11.5 0  9.5 11.5 0  10 11.5 0  10.5 11.5 0  11 11.5 0  11.5 11.5 0  12 11.5 0  12.5 11.5 0  13 11.5 0  13.5 11.5 0  14 11.5 0  14.5 11.5 0  15 11.5 0  15.5 11.5 0  16 11.5 0  16.5 11.5 0  17 11.5 0  17.5 11.5 0  18 11.5 0  18.5 11.5 0  19 11.5 0  19.5 11.5 0  20 11.5 0  0 12 0  0.5 12 0  1 12 0  1.5 12 0  2 12 0  2.5 12 0  3 12 0  3.5 12 0  4 12 0  4.5 12 0  5 12 0  5.5 12 0  6 12 0  6.5 12 0  7 12 0  7.5 12 0  8 12 0  8.5 12 0  9 12 0  9.5 12 0  10 12 0  10.5 12 0  11 12 0  11.5 12 0  12 12 0  12.5 12 0  13 12 0  13.5 12 0  14 12 0  14.5 12 0  
[...]
<PointData  Vectors="f_5173-0"> 
<DataArray  type="Float64"  Name="f_5173-0"  NumberOfComponents="3" format="ascii">0.0000000000000000e+00 0.0000000000000000e+00 0.0000000000000000e+00  -2.2527018183362002e-07 0.0000000000000000e+00 0.0000000000000000e+00  -1.2383676946726505e-06 0.0000000000000000e+00 0.0000000000000000e+00  -3.9930291804795072e-06 0.0000000000000000e+00 0.0000000000000000e+00  -9.3483799626406501e-06 0.0000000000000000e+00 0.0000000000000000e+00  -1.8150188140974809e-05 0.0000000000000000e+00 0.0000000000000000e+00  -3.1230554334414645e-05 0.0000000000000000e+00 0.0000000000000000e+00  -4.9402858895274238e-05 0.0000000000000000e+00 0.0000000000000000e+00  -7.3456767670987633e-05 0.0000000000000000e+00 0.0000000000000000e+00  -1.0415318992001414e-04 0.0000000000000000e+00 0.0000000000000000e+00  -1.4221899344753222e-04 0.0000000000000000e+00 0.0000000000000000e+00  -1.8834137997805907e-04 0.0000000000000000e+00 0.0000000000000000e+00  -2.4316187232517494e-04 0.0000000000000000e+00 0.0000000000000000e+00  -3.0726988773920473e-04 0.0000000000000000e+00 0.0000000000000000e+00  -3.8119588362123697e-04 0.0000000000000000e+00 0.0000000000000000e+00  -4.6540406346520937e-04 0.0000000000000000e+00 0.0000000000000000e+00  -5.6028461763541252e-04 0.0000000000000000e+00 0.0000000000000000e+00  -6.6614543252952190e-04 0.0000000000000000e+00 0.0000000000000000e+00  -7.8320310888789198e-04 0.0000000000000000e+00 0.0000000000000000e+00  -9.1157294113633101e-04 0.0000000000000000e+00 0.0000000000000000e+00  -1.0512571460772947e-03 0.0000000000000000e+00 0.0000000000000000e+00  -1.2021299491095795e-03 0.0000000000000000e+00 0.0000000000000000e+00  -1.3639168910842667e-03 0.0000000000000000e+00 0.0000000000000000e+00  -1.5361634754077003e-03 0.0000000000000000e+00 0.0000000000000000e+00  -1.7181842895509624e-03 0.0000000000000000e+00 0.0000000000000000e+00  -1.9089767557617713e-03 0.0000000000000000e+00 0.0000000000000000e+00  -2.1070716333994391e-03 0.0000000000000000e+00 0.0000000000000000e+00  -2.3102720219624314e-03 0.0000000000000000e+00 0.0000000000000000e+00  -2.5151988558509914e-03 0.0000000000000000e+00 0.0000000000000000e+00  -2.7165064071862036e-03 0.0000000000000000e+00 0.0000000000000000e+00  -2.9055462767429091e-03 0.0000000000000000e+00 0.0000000000000000e+00  -3.0681311345815330e-03 0.0000000000000000e+00 0.0000000000000000e+00  -3.1808695368417635e-03 0.0000000000000000e+00 0.0000000000000000e+00  -3.2053075821468395e-03 0.0000000000000000e+00 0.0000000000000000e+00  -3.0788379728456158e-03 0.0000000000000000e+00 0.0000000000000000e+00  -2.7010710471960624e-03 0.0000000000000000e+00 0.0000000000000000e+00  -1.9141932201710615e-03 0.0000000000000000e+00 0.0000000000000000e+00  -4.7586361137791594e-04 0.0000000000000000e+00 0.0000000000000000e+00  1.9765925121221356e-03 0.0000000000000000e+00 0.0000000000000000e+00  5.9721068466079344e-03 0.0000000000000000e+00 0.0000000000000000e+00  1.2268962228498059e-02 0.0000000000000000e+00 0.0000000000000000e+00  0.0000000000000000e+00 -2.2527018092540893e-07 0.0000000000000000e+00  3.0226043281464525e-07 3.0226043339555871e-07 0.0000000000000000e+00  -3.0070480141793965e-07 1.6445997141419561e-06 0.0000000000000000e+00  -2.6305344029198555e-06 3.8197663681056388e-06 0.0000000000000000e+00  -7.5538989736203409e-06 6.8411236908221062e-06 0.0000000000000000e+00  -1.5922142632841784e-05 1.0703121587960450e-05 0.0000000000000000e+00  -2.8569280040481232e-05 1.5390334723069110e-05 0.0000000000000000e+00  -4.6309516699672977e-05 2.0881356531026377e-05 0.0000000000000000e+00  -6.9933195590969713e-05 2.7149774863580845e-05 0.0000000000000000e+00  -1.0020203671410351e-04 3.4164157629099992e-05 0.0000000000000000e+00  -1.3784393629255332e-04 4.1887740635537621e-05 0.0000000000000000e+00  -1.8354737014820440e-04 5.0278028915800739e-05 0.0000000000000000e+00  -2.3795539187088387e-04 5.9286376534440666e-05 0.0000000000000000e+00  -3.0165921022432885e-04 6.8857570688213938e-05 0.0000000000000000e+00  -3.7519133356211563e-04 7.8929437394621677e-05 0.0000000000000000e+00  -4.5901826878052394e-04 8.9432485275112527e-05 0.0000000000000000e+00  -5.5353274881509860e-04 1.0028960501108451e-04 0.0000000000000000e+00  -6.5904542186429559e-04 1.1141584275275097e-04 0.0000000000000000e+00  -7.7577584336338708e-04 1.2271826539889696e-04 0.0000000000000000e+00  -9.0384242394069469e-04 1.3409593379340304e-04 0.0000000000000000e+00  -1.0432506238644381e-03 1.4543999620971821e-04 0.0000000000000000e+00  -1.1938780058441390e-03 1.5663390817809069e-04 0.0000000000000000e+00  -1.3554535141328938e-03 1.6755377654663084e-04 0.0000000000000000e+00  -1.5275261047496876e-03 1.7806881589438320e-04 0.0000000000000000e+00  -1.7094138647355335e-03 1.8804189711005254e-04 0.0000000000000000e+00  -1.9001177730698664e-03 1.9733016722832866e-04 0.0000000000000000e+00  -2.0981722089546957e-03 2.0578573746218965e-04 0.0000000000000000e+00  -2.3013839106895292e-03 2.1325649333761150e-04 0.0000000000000000e+00  -2.5063772782016641e-03 2.1958720566338675e-04 0.0000000000000000e+00  -2.7078093545338023e-03 2.2462135163532862e-04 0.0000000000000000e+00  -2.8970326690858951e-03 2.2820442191127569e-04 0.0000000000000000e+00  -3.0598567721637051e-03 2.3018997780660457e-04 0.0000000000000000e+00  -3.1728792434048631e-03 2.3045019830364490e-04 0.0000000000000000e+00  -3.1976213679073221e-03 2.2889274509373640e-04 0.0000000000000000e+00  -3.0714285476240405e-03 2.2548473680170092e-04 0.0000000000000000e+00  -2.6938294598686931e-03 2.2028127036218375e-04 0.0000000000000000e+00  -1.9068780441007188e-03 2.1344825363707527e-04 0.0000000000000000e+00  -4.6802684569334231e-04 2.0525109608408523e-04 0.0000000000000000e+00  1.9856916067291369e-03 1.9592139508764402e-04 0.0000000000000000e+00  5.9832395712004736e-03 1.8506591365528095e-04 0.0000000000000000e+00  1.2276262285739236e-02 1.6927499848289702e-04 0.0000000000000000e+00  0.0000000000000000e+00 -1.2383676971964889e-06 0.0000000000000000e+00  1.6445997156087190e-06 -3.0070480307994058e-07 0.0000000000000000e+00  2.3524278358835028e-06 2.3524278349043721e-06 0.0000000000000000e+00  1.3233573731611357e-06 6.7112642277254477e-06 0.0000000000000000e+00  -2.2994826314983683e-06 1.2767566598191545e-05 0.0000000000000000e+00  -9.3664047728111736e-06 2.0501760186098242e-05 0.0000000000000000e+00  -2.0712866257446774e-05 2.9883292932446978e-05 0.0000000000000000e+00  -3.7154966630881238e-05 4.0871076328361067e-05 0.0000000000000000e+00  -5.9485201848659827e-05 5.3413731221643150e-05 0.0000000000000000e+00  -8.8467853256884288e-05 6.7449438372262980e-05 0.0000000000000000e+00  -1.2483393496796593e-04 8.2905462865773738e-05 0.0000000000000000e+00  -1.6927569928710406e-04 9.9697480512713919e-05 0.0000000000000000e+00  -2.2244069835309141e-04 1.1772880645309496e-04 0.0000000000000000e+00  -2.8492539593111504e-04 1.3688959483747941e-04 0.0000000000000000e+00  -3.5726832210289833e-04 1.5705606037017653e-04 0.0000000000000000e+00  -4.3994275983353417e-04 1.7808976534352102e-04 0.0000000000000000e+00  -5.3334893728266403e-04 1.9983701349973377e-04 0.0000000000000000e+00  -6.3780565875052860e-04 2.2212839203720919e-04 0.0000000000000000e+00  -7.5354121566594023e-04 2.4477850239021154e-04 0.0000000000000000e+00  -8.8068323264766702e-04 2.6758591837661394e-04 0.0000000000000000e+00  -1.0192467428589006e-03 2.9033340554514064e-04 0.0000000000000000e+00  -1.1691191098834523e-03 3.1278842822243401e-04 0.0000000000000000e+00  -1.3300391703842231e-03 3.3470396100347401e-04 0.0000000000000000e+00  -1.5015657266745572e-03 3.5581961162983435e-04 0.0000000000000000e+00  -1.6830265232231391e-03 3.7586305747178633e-04 0.0000000000000000e+00  -1.8734318360091565e-03 3.9455180806144836e-04 0.0000000000000000e+00  -2.0713247161560180e-03 4.1159534862560712e-04 0.0000000000000000e+00  -2.2745194549046669e-03 4.2669782099122186e-04 0.0000000000000000e+00  -2.4796459109251677e-03 4.3956159377937424e-04 0.0000000000000000e+00  -2.6813626206548995e-03 4.4989239842784738e-04 0.0000000000000000e+00  -2.8710162718459738e-03 4.5740716952214199e-04 0.0000000000000000e+00  -3.0343976319295702e-03 4.6184624821600685e-04 0.0000000000000000e+00  -3.1480640661316010e-03 4.6299190854726986e-04 0.0000000000000000e+00  -3.1734637988052772e-03 4.6069459212749546e-04 0.0000000000000000e+00  -3.0478234582127458e-03 4.5490548547596300e-04 0.0000000000000000e+00  -2.6704972993520661e-03 4.4570674959397574e-04 0.0000000000000000e+00  -1.8833122430989529e-03 4.3331420428794568e-04 0.0000000000000000e+00  -4.4348284483055733e-04 4.1799144489304687e-04 0.0000000000000000e+00  2.0120427936472811e-03 3.9973596336739944e-04 0.0000000000000000e+00  6.0115556027531816e-03 3.7744059993742888e-04 0.0000000000000000e+00  1.2303369391734117e-02 3.4709643293740421e-04 0.0000000000000000e+00  0.0000000000000000e+00 -3.9930291827016718e-06 0.0000000000000000e+00  3.8197663674843630e-06 -2.6305344037506588e-06 0.0000000000000000e+00  6.7112642242057454e-06 1.3233573735156677e-06 0.0000000000000000e+00  7.8541155454270078e-06 7.8541155464509334e-06 0.0000000000000000e+00  6.3997620406426215e-06 1.6939766723971071e-05 0.0000000000000000e+00  1.4996565431040252e-06 2.8546277998052378e-05 0.0000000000000000e+00  -7.6822355711793663e-06 4.2625840679734220e-05 0.0000000000000000e+00  -2.1963957694092500e-05 5.9116648758792850e-05 0.0000000000000000e+00  -4.2141006009738444e-05 7.7942415349732140e-05 0.0000000000000000e+00  -6.8981665356267609e-05 9.9011597079458105e-05 0.0000000000000000e+00  -1.0322201194313394e-04 1.2221642100805545e-04 0.0000000000000000e+00  -1.4556050183506055e-04 1.4743177550442240e-04 0.0000000000000000e+00  -1.9665210674814021e-04 1.7451401904381775e-04 0.0000000000000000e+00  -2.5710197550915455e-04 2.0329976290989600e-04 0.0000000000000000e+00  -3.2745860676675634e-04 2.3360468615110685e-04 0.0000000000000000e+00  -4.0820651756799133e-04 2.6522244378774046e-04 0.0000000000000000e+00  -4.9975837840462783e-04 2.9792373150486819e-04 0.0000000000000000e+00  -6.0244654512335593e-04 3.3145557266678766e-04 0.0000000000000000e+00  -7.1651382774681434e-04 3.6554089463135904e-04 0.0000000000000000e+00  -8.4210315133749307e-04 3.9987846094237438e-04 0.0000000000000000e+00  -9.7924540491941040e-04 4.3414322291070970e-04 0.0000000000000000e+00  -1.1278440988272786e-03 4.6798714838975188e-04 0.0000000000000000e+00  -1.2876542070635712e-03 5.0104057834853650e-04 0.0000000000000000e+00  -1.4582503213628846e-03 5.3291415568199616e-04 0.0000000000000000e+00  -1.6389752352282605e-03 5.6320137204915965e-04 0.0000000000000000e+00  -1.8288530431601303e-03 5.9148179798181478e-04 0.0000000000000000e+00  -2.0264387021024111e-03 6.1732511612037412e-04 0.0000000000000000e+00  -2.2295554450639326e-03 6.4029619015740420e-04 0.0000000000000000e+00  -2.4348373922842633e-03 6.5996159749962381e-04 0.0000000000000000e+00  -2.6369398423746566e-03 6.7589834262958895e-04 0.0000000000000000e+00  -2.8271942699996696e-03 6.8770581302756838e-04 0.0000000000000000e+00  -2.9913576046609659e-03 6.9502228554447793e-04 0.0000000000000000e+00  -3.1059258388547537e-03 6.9754704785023210e-04 0.0000000000000000e+00  -3.1322482547811972e-03 6.9506766462752755e-04 0.0000000000000000e+00  -3.0074075453882729e-03 6.8748764480176772e-04 0.0000000000000000e+00  -2.6305728300157149e-03 6.7484042680908472e-04 0.0000000000000000e+00  -1.8433772235595467e-03 6.5725796100943735e-04 0.0000000000000000e+00  -4.0292875298797177e-04 6.3483334960886292e-04 0.0000000000000000e+00  2.0536173245121300e-03 6.0728177013257109e-04 0.0000000000000000e+00  6.0535743280353618e-03 5.7330621791177390e-04 0.0000000000000000e+00  1.2342953985803208e-02 5.2980858770545222e-04 0.0000000000000000e+00  0.0000000000000000e+00 -9.3483799642717086e-06 0.0000000000000000e+00  6.8411236901205834e-06 -7.5538989734210272e-06 0.0000000000000000e+00  1.2767566598295422e-05 -2.2994826307451676e-06 0.0000000000000000e+00  1.6939766723267522e-05 6.3997620400716137e-06 0.0000000000000000e+00  1.8511815851946642e-05 1.8511815853008638e-05 0.0000000000000000e+00  1.6636346247234885e-05 3.3989586849875751e-05 0.0000000000000000e+00  1.0476422150142408e-05 5.2769072390320601e-05 0.0000000000000000e+00  -7.8841194120247767e-07 7.4768535224102966e-05 0.0000000000000000e+00  -1.7957454806496112e-05 9.9887561598595496e-05 0.0000000000000000e+00  -4.1804244131381338e-05 1.2800585150691789e-04 0.0000000000000000e+00  -7.3071660923729610e-05 1.5898178544000418e-04 0.0000000000000000e+00  -1.1246662253471271e-04 1.9265083875366783e-04 0.0000000000000000e+00  -1.6065430772091278e-04 2.2882391029516917e-04 0.0000000000000000e+00  -2.1825187926580858e-04 2.6728563011849392e-04 0.0000000000000000e+00  -2.8582167917171405e-04 3.0779271532516979e-04 0.0000000000000000e+00  -3.6386387243699116e-04 3.5007244955760229e-04 0.0000000000000000e+00  -4.5280850244663065e-04 3.9382136933501009e-04 0.0000000000000000e+00  -5.5300688221188708e-04 4.3870424701531450e-04 0.0000000000000000e+00  -6.6472215650248141e-04 4.8435346558755742e-04 0.0000000000000000e+00  -7.8811868658083622e-04 5.3036888351640687e-04 0.0000000000000000e+00  -9.2324955156513353e-04 5.7631828848554018e-04 0.0000000000000000e+00  -1.0700407853191363e-03 6.2173853663125759e-04 0.0000000000000000e+00  -1.2282697224606769e-03 6.6613747032673309e-04 0.0000000000000000e+00  -1.3975325708609353e-03 7.0899670513438256e-04 0.0000000000000000e+00  -1.5771923050488142e-03 7.4977538086758925e-04 0.0000000000000000e+00  -1.7662909139983024e-03 7.8791499167813524e-04 0.0000000000000000e+00  -1.9633978522582661e-03 8.2284545814291217e-04 0.0000000000000000e+00  -2.1663459181025515e-03 8.5399269404010342e-04 0.0000000000000000e+00  -2.3717716541662558e-03 8.8078805973235608e-04 0.0000000000000000e+00  -2.5743224311927195e-03 9.0268026659378372e-04 0.0000000000000000e+00  -2.7653069304667387e-03 9.1915042782706878e-04 0.0000000000000000e+00  -2.9304385252083161e-03 9.2973084804458673e-04 0.0000000000000000e+00  -3.0461422434916829e-03 9.3402740788489701e-04 0.0000000000000000e+00  -3.0736637788247720e-03 9.3174332370891586e-04 0.0000000000000000e+00  -2.9499508156107116e-03 9.2269757951682102e-04 0.0000000000000000e+00  -2.5740231146205834e-03 9.0682320051524705e-04 0.0000000000000000e+00  -1.7873983810644707e-03 8.8411830789110804e-04 0.0000000000000000e+00  -3.4720297518333476e-04 8.5450984828893122e-04 0.0000000000000000e+00  2.1090920289126630e-03 8.1759051539671433e-04 0.0000000000000000e+00  6.1080128312306862e-03 7.7224377134579435e-04 0.0000000000000000e+00  1.2394476335859217e-02 7.1635617268671510e-04 0.0000000000000000e+00  0.0000000000000000e+00 -1.8150188141640333e-05 0.0000000000000000e+00  1.0703121587895626e-05 -1.5922142631410464e-05 0.0000000000000000e+00  2.0501760185561966e-05 -9.3664047742900982e-06 0.0000000000000000e+00  2.8546277999398828e-05 1.4996565432071038e-06 0.0000000000000000e+00  3.3989586852923850e-05 1.6636346246743650e-05 0.0000000000000000e+00  3.5984858456744363e-05 3.5984858454676763e-05 0.0000000000000000e+00  3.3694018816095701e-05 5.9466239378600095e-05 0.0000000000000000e+00  2.6293774423684872e-05 8.6980166410720406e-05 0.0000000000000000e+00  1.2980274006977336e-05 1.1840357859441855e-04 0.0000000000000000e+00  -7.0264117607805210e-06 1.5358903680299442e-04 0.0000000000000000e+00  -3.4477556576405714e-05 1.9236283823576350e-04 0.0000000000000000e+00  -7.0090626605579084e-05 2.3452294910809203e-04 0.0000000000000000e+00  -1.1454363298993173e-04 2.7983682768645512e-04 0.0000000000000000e+00  -1.6846894166914670e-04 3.2803921483888732e-04 0.0000000000000000e+00  -2.3244650484592941e-04 3.7882997649589962e-04 0.0000000000000000e+00  -3.0699647959325061e-04 4.3187209195584873e-04 0.0000000000000000e+00  -3.9257118635716102e-04 4.8678989289325944e-04 0.0000000000000000e+00  -4.8954632164162403e-04 5.4316766866435609e-04 0.0000000000000000e+00  -5.9821125087750103e-04 6.0054876320863465e-04 0.0000000000000000e+00  -7.1875802535207060e-04 6.5843529656736558e-04 0.0000000000000000e+00  -8.5126841044424041e-04 7.1628864909326680e-04 0.0000000000000000e+00  -9.9569753772725165e-04 7.7353084847154641e-04 0.0000000000000000e+00  -1.1518515466453689e-03 8.2954699971055838e-04 0.0000000000000000e+00  -1.3193543199654279e-03 8.8368889759831348e-04 0.0000000000000000e+00  -1.4975943823483601e-03 9.3527996389229672e-04 0.0000000000000000e+00  -1.6856359495356235e-03 9.8362166276682737e-04 0.0000000000000000e+00  -1.8820658991400144e-03 1.0280015742590016e-03 0.0000000000000000e+00  -2.0847277686378072e-03 1.0677033500010749e-03 0.0000000000000000e+00  -2.2902597231923547e-03 1.1020188320195788e-03 0.0000000000000000e+00  -2.4932985072359973e-03 1.1302626501030735e-03 0.0000000000000000e+00  -2.6851260677131315e-03 1.1517895403179009e-03 0.0000000000000000e+00  -2.8514086794167426e-03 1.1660142692326845e-03 0.0000000000000000e+00  -2.9685003640560655e-03 1.1724330941194894e-03 0.0000000000000000e+00  -2.9975515787784303e-03 1.1706436777405228e-03 0.0000000000000000e+00  -2.8753980525422253e-03 1.1603567831311641e-03 0.0000000000000000e+00  -2.5009532275980916e-03 1.1413876726621371e-03 0.0000000000000000e+00  -1.7156793437171811e-03 1.1136089600779877e-03 0.0000000000000000e+00  -2.7676909712391509e-04 1.0768439751624637e-03 0.0000000000000000e+00  2.1780412055928478e-03 1.0306907320634653e-03 0.0000000000000000e+00  6.1748125421221310e-03 9.7430722246310002e-04 0.0000000000000000e+00  1.2458096176338961e-02 9.0626048521999102e-04 0.0000000000000000e+00  0.0000000000000000e+00 -3.1230554335988439e-05 0.0000000000000000e+00  1.5390334723574114e-05 -2.8569280040191476e-05 0.0000000000000000e+00  2.9883292932257310e-05 -2.0712866259738225e-05 0.0000000000000000e+00  4.2625840678807763e-05 -7.6822355734053265e-06 0.0000000000000000e+00  5.2769072390144398e-05 1.0476422150898537e-05 0.0000000000000000e+00  5.9466239377452094e-05 3.3694018818600750e-05 0.0000000000000000e+00  6.1878095378072647e-05 6.1878095381280978e-05 0.0000000000000000e+00  5.9178321520624748e-05 9.4911386671904334e-05 0.0000000000000000e+00  5.0558000606033716e-05 1.3265005983266115e-04 0.0000000000000000e+00  3.5229898366266764e-05 1.7492163522661892e-04 0.0000000000000000e+00  1.2432979681670796e-05 2.2152262580008849e-04 0.0000000000000000e+00  -1.8562645329482210e-05 2.7221595840484834e-04 0.0000000000000000e+00  -5.8450246352301275e-05 3.2672825342316259e-04 0.0000000000000000e+00  -1.0788040633865733e-04 3.8474704931604626e-04 0.0000000000000000e+00  -1.6745431426151954e-04 4.4591807041004055e-04 0.0000000000000000e+00  -2.3771636931172038e-04 5.0984265009142399e-04 0.0000000000000000e+00  -3.1914603566830004e-04 5.7607543662318769e-04 0.0000000000000000e+00  -4.1214884827309222e-04 6.4412252425109947e-04 0.0000000000000000e+00  -5.1704638224340604e-04 7.1344016691670851e-04 0.0000000000000000e+00  -6.3406481700745349e-04 7.8343424491907824e-04 0.0000000000000000e+00  -7.6332137071114133e-04 8.5346066494889630e-04 0.0000000000000000e+00  -9.0480720647636453e-04 9.2282688070372606e-04 0.0000000000000000e+00  -1.0583641649530621e-03 9.9079472435139801e-04 0.0000000000000000e+00  -1.2236504134636758e-03 1.0565847385955805e-03 0.0000000000000000e+00  -1.4000860612192428e-03 1.1193821967703061e-03 0.0000000000000000e+00  -1.5867626979163836e-03 1.1783449950783429e-03 0.0000000000000000e+00  -1.7822885830900057e-03 1.2326135978616396e-03 0.0000000000000000e+00  -1.9845205382914653e-03 1.2813232093016665e-03 0.0000000000000000e+00  -2.1900994408307621e-03 1.3236183186931985e-03 0.0000000000000000e+00  -2.3936513516270674e-03 1.3586696843239739e-03 0.0000000000000000e+00  -2.5864311570355956e-03 1.3856936090740049e-03 0.0000000000000000e+00  -2.7540591137824701e-03 1.4039728920341252e-03 0.0000000000000000e+00  -2.8728232968651649e-03 1.4128779272558002e-03 0.0000000000000000e+00  -2.9037910909436582e-03 1.4118848466255262e-03 0.0000000000000000e+00  -2.7837078279726235e-03 1.4005852316782707e-03 