<?xml version="1.0"?>
<VTKFile type="UnstructuredGrid"  version="0.1"  >
<UnstructuredGrid>
<Piece  NumberOfPoints="1681" NumberOfCells="3200">
<Points>
<DataArray  type="Float64"  NumberOfComponents="3"  format="ascii">0 0 0  0.5 0 0  1 0 0  1.5 0 0  2 0 0  2.5 0 0  3 0 0  3.5 0 0  4 0 0  4.5 0 0  5 0 0  5.5 0 0  6 0 0  6.5 0 0  7 0 0  7.5 0 0  8 0 0  8.5 0 0  9 0 0  9.5 0 0  10 0 0  10.5 0 0  11 0 0  11.5 0 0  12 0 0  12.5 0 0  13 0 0  13.5 0 0  14 0 0  14.5 0 0  15 0 0  15.5 0 0  16 0 0  16.5 0 0  17 0 0  17.5 0 0  18 0 0  18.5 0 0  19 0 0  19.5 0 0  20 0 0  0 0.5 0  0.5 0.5 0  1 0.5 0  1.5 0.5 0  2 0.5 0  2.5 0.5 0  3 0.5 0  3.5 0.5 0  4 0.5 0  4.5 0.5 0  5 0.5 0  5.5 0.5 0  6 0.5 0  6.5 0.5 0  7 0.5 0  7.5 0.5 0  8 0.5 0  8.5 0.5 0  9 0.5 0  9.5 0.5 0  10 0.5 0  10.5 0.5 0  11 0.5 0  11.5 0.5 0  12 0.5 0  12.5 0.5 0  13 0.5 0  13.5 0.5 0  14 0.5 0  14.5 0.5 0  15 0.5 0  15.5 0.5 0  16 0.5 0  16.5 0.5 0  17 0.5 0  17.5 0.5 0  18 0.5 0  18.5 0.5 0  19 0.5 0  19.5 0.5 0  20 0.5 0  0 1 0  0.5 1 0  1 1 0  1.5 1 0  2 1 0  2.5 1 0  3 1 0  3.5 1 0  4 1 0  4.5 1 0  5 1 0  5.5 1 0  6 1 0  6.5 1 0  7 1 0  7.5 1 0  8 1 0  8.5 1 0  9 1 0  9.5 1 0  10 1 0  10.5 1 0  11 1 0  11.5 1 0  12 1 0  12.5 1 0  13 1 0  13.5 1 0  14 1 0  14.5 1 0  15 1 0  15.5 1 0  16 1 0  16.5 1 0  17 1 0  17.5 1 0  18 1 0  18.5 1 0  19 1 0  19.5 1 0  20 1 0  0 1.5 0  0.5 1.5 0  1 1.5 0  1.5 1.5 0  2 1.5 0  2.5 1.5 0  3 1.5 0  3.5 1.5 0  4 1.5 0  4.5 1.5 0  5 1.5 0  5.5 1.5 0  6 1.5 0  6.5 1.5 0  7 1.5 0  7.5 1.5 0  8 1.5 0  8.5 1.5 0  9 1.5 0  9.5 1.5 0  10 1.5 0  10.5 1.5 0  11 1.5 0  11.5 1.5 0  12 1.5 0  12.5 1.5 0  13 1.5 0  13.5 1.5 0  14 1.5 0  14.5 1.5 0  15 1.5 0  15.5 1.5 0  16 1.5 0  16.5 1.5 0  17 1.5 0  17.5 1.5 0  18 1.5 0  18.5 1.5 0  19 1.5 0  19.5 1.5 0  20 1.5 0  0 2 0  0.5 2 0  1 2 0  1.5 2 0  2 2 0  2.5 2 0  3 2 0  3.5 2 0  4 2 0  4.5 2 0  5 2 0  5.5 2 0  6 2 0  6.5 2 0  7 2 0  7.5 2 0  8 2 0  8.5 2 0  9 2 0  9.5 2 0  10 2 0  10.5 2 0  11 2 0  11.5 2 0  12 2 0  12.5 2 0  13 2 0  13.5 2 0  14 2 0  14.5 2 0  15 2 0  15.5 2 0  16 2 0  16.5 2 0  17 2 0  17.5 2 0  18 2 0  18.5 2 0  19 2 0  19.5 2 0  20 2 0  0 2.5 0  0.5 2.5 0  1 2.5 0  1.5 2.5 0  2 2.5 0  2.5 2.5 0  3 2.5 0  3.5 2.5 0  4 2.5 0  4.5 2.5 0  5 2.5 0  5.5 2.5 0  6 2.5 0  6.5 2.5 0  7 2.5 0  7.5 2.5 0  8 2.5 0  8.5 2.5 0  9 2.5 0  9.5 2.5 0  10 2.5 0  10.5 2.5 0  11 2.5 0  11.5 2.5 0  12 2.5 0  12.5 2.5 0  13 2.5 0  13.5 2.5 0  14 2.5 0  14.5 2.5 0  15 2.5 0  15.5 2.5 0  16 2.5 0  16.5 2.5 0  17 2.5 0  17.5 2.5 0  18 2.5 0  18.5 2.5 0  19 2.5 0  19.5 2.5 0  20 2.5 0  0 3 0  0.5 3 0  1 3 0  1.5 3 0  2 3 0  2.5 3 0  3 3 0  3.5 3 0  4 3 0  4.5 3 0  5 3 0  5.5 3 0  6 3 0  6.5 3 0  7 3 0  7.5 3 0  8 3 0  8.5 3 0  9 3 0  9.5 3 0  10 3 0  10.5 3 0  11 3 0  11.5 3 0  12 3 0  12.5 3 0  13 3 0  13.5 3 0  14 3 0  14.5 3 0  15 3 0  15.5 3 0  16 3 0  16.5 3 0  17 3 0  17.5 3 0  18 3 0  18.5 3 0  19 3 0  19.5 3 0  20 3 0  0 3.5 0  0.5 3.5 0  1 3.5 0  1.5 3.5 0  2 3.5 0  2.5 3.5 0  3 3.5 0  3.5 3.5 0  4 3.5 0  4.5 3.5 0  5 3.5 0  5.5 3.5 0  6 3.5 0  6.5 3.5 0  7 3.5 0  7.5 3.5 0  8 3.5 0  8.5 3.5 0  9 3.5 0  9.5 3.5 0  10 3.5 0  10.5 3.5 0  11 3.5 0  11.5 3.5 0  12 3.5 0  12.5 3.5 0  13 3.5 0  13.5 3.5 0  14 3.5 0  14.5 3.5 0  15 3.5 0  15.5 3.5 0  16 3.5 0  16.5 3.5 0  17 3.5 0  17.5 3.5 0  18 3.5 0  18.5 3.5 0  19 3.5 0  19.5 3.5 0  20 3.5 0  0 4 0  0.5 4 0  1 4 0  1.5 4 0  2 4 0  2.5 4 0  3 4 0  3.5 4 0  4 4 0  4.5 4 0  5 4 0  5.5 4 0  6 4 0  6.5 4 0  7 4 0  7.5 4 0  8 4 0  8.5 4 0  9 4 0  9.5 4 0  10 4 0  10.5 4 0  11 4 0  11.5 4 0  12 4 0  12.5 4 0  13 4 0  13.5 4 0  14 4 0  14.5 4 0  15 4 0  15.5 4 0  16 4 0  16.5 4 0  17 4 0  17.5 4 0  18 4 0  18.5 4 0  19 4 0  19.5 4 0  20 4 0  0 4.5 0  0.5 4.5 0  1 4.5 0  1.5 4.5 0  2 4.5 0  2.5 4.5 0  3 4.5 0  3.5 4.5 0  4 4.5 0  4.5 4.5 0  5 4.5 0  5.5 4.5 0  6 4.5 0  6.5 4.5 0  7 4.5 0  7.5 4.5 0  8 4.5 0  8.5 4.5 0  9 4.5 0  9.5 4.5 0  10 4.5 0  10.5 4.5 0  11 4.5 0  11.5 4.5 0  12 4.5 0  12.5 4.5 0  13 4.5 0  13.5 4.5 0  14 4.5 0  14.5 4.5 0  15 4.5 0  15.5 4.5 0  16 4.5 0  16.5 4.5 0  17 4.5 0  17.5 4.5 0  18 4.5 0  18.5 4.5 0  19 4.5 0  19.5 4.5 0  20 4.5 0  0 5 0  0.5 5 0  1 5 0  1.5 5 0  2 5 0  2.5 5 0  3 5 0  3.5 5 0  4 5 0  4.5 5 0  5 5 0  5.5 5 0  6 5 0  6.5 5 0  7 5 0  7.5 5 0  8 5 0  8.5 5 0  9 5 0  9.5 5 0  10 5 0  10.5 5 0  11 5 0  11.5 5 0  12 5 0  12.5 5 0  13 5 0  13.5 5 0  14 5 0  14.5 5 0  15 5 0  15.5 5 0  16 5 0  16.5 5 0  17 5 0  17.5 5 0  18 5 0  18.5 5 0  19 5 0  19.5 5 0  20 5 0  0 5.5 0  0.5 5.5 0  1 5.5 0  1.5 5.5 0  2 5.5 0  2.5 5.5 0  3 5.5 0  3.5 5.5 0  4 5.5 0  4.5 5.5 0  5 5.5 0  5.5 5.5 0  6 5.5 0  6.5 5.5 0  7 5.5 0  7.5 5.5 0  8 5.5 0  8.5 5.5 0  9 5.5 0  9.5 5.5 0  10 5.5 0  10.5 5.5 0  11 5.5 0  11.5 5.5 0  12 5.5 0  12.5 5.5 0  13 5.5 0  13.5 5.5 0  14 5.5 0  14.5 5.5 0  15 5.5 0  15.5 5.5 0  16 5.5 0  16.5 5.5 0  17 5.5 0  17.5 5.5 0  18 5.5 0  18.5 5.5 0  19 5.5 0  19.5 5.5 0  20 5.5 0  0 6 0  0.5 6 0  1 6 0  1.5 6 0  2 6 0  2.5 6 0  3 6 0  3.5 6 0  4 6 0  4.5 6 0  5 6 0  5.5 6 0  6 6 0  6.5 6 0  7 6 0  7.5 6 0  8 6 0  8.5 6 0  9 6 0  9.5 6 0  10 6 0  10.5 6 0  11 6 0  11.5 6 0  12 6 0  12.5 6 0  13 6 0  13.5 6 0  14 6 0  14.5 6 0  15 6 0  15.5 6 0  16 6 0  16.5 6 0  17 6 0  17.5 6 0  18 6 0  18.5 6 0  19 6 0  19.5 6 0  20 6 0  0 6.5 0  0.5 6.5 0  1 6.5 0  1.5 6.5 0  2 6.5 0  2.5 6.5 0  3 6.5 0  3.5 6.5 0  4 6.5 0  4.5 6.5 0  5 6.5 0  5.5 6.5 0  6 6.5 0  6.5 6.5 0  7 6.5 0  7.5 6.5 0  8 6.5 0  8.5 6.5 0  9 6.5 0  9.5 6.5 0  10 6.5 0  10.5 6.5 0  11 6.5 0  11.5 6.5 0  12 6.5 0  12.5 6.5 0  13 6.5 0  13.5 6.5 0  14 6.5 0  14.5 6.5 0  15 6.5 0  15.5 6.5 0  16 6.5 0  16.5 6.5 0  17 6.5 0  17.5 6.5 0  18 6.5 0  18.5 6.5 0  19 6.5 0  19.5 6.5 0  20 6.5 0  0 7 0  0.5 7 0  1 7 0  1.5 7 0  2 7 0  2.5 7 0  3 7 0  3.5 7 0  4 7 0  4.5 7 0  5 7 0  5.5 7 0  6 7 0  6.5 7 0  7 7 0  7.5 7 0  8 7 0  8.5 7 0  9 7 0  9.5 7 0  10 7 0  10.5 7 0  11 7 0  11.5 7 0  12 7 0  12.5 7 0  13 7 0  13.5 7 0  14 7 0  14.5 7 0  15 7 0  15.5 7 0  16 7 0  16.5 7 0  17 7 0  17.5 7 0  18 7 0  18.5 7 0  19 7 0  19.5 7 0  20 7 0  0 7.5 0  0.5 7.5 0  1 7.5 0  1.5 7.5 0  2 7.5 0  2.5 7.5 0  3 7.5 0  3.5 7.5 0  4 7.5 0  4.5 7.5 0  5 7.5 0  5.5 7.5 0  6 7.5 0  6.5 7.5 0  7 7.5 0  7.5 7.5 0  8 7.5 0  8.5 7.5 0  9 7.5 0  9.5 7.5 0  10 7.5 0  10.5 7.5 0  11 7.5 0  11.5 7.5 0  12 7.5 0  12.5 7.5 0  13 7.5 0  13.5 7.5 0  14 7.5 0  14.5 7.5 0  15 7.5 0  15.5 7.5 0  16 7.5 0  16.5 7.5 0  17 7.5 0  17.5 7.5 0  18 7.5 0  18.5 7.5 0  19 7.5 0  19.5 7.5 0  20 7.5 0  0 8 0  0.5 8 0  1 8 0  1.5 8 0  2 8 0  2.5 8 0  3 8 0  3.5 8 0  4 8 0  4.5 8 0  5 8 0  5.5 8 0  6 8 0  6.5 8 0  7 8 0  7.5 8 0  8 8 0  8.5 8 0  9 8 0  9.5 8 0  10 8 0  10.5 8 0  11 8 0  11.5 8 0  12 8 0  12.5 8 0  13 8 0  13.5 8 0  14 8 0  14.5 8 0  15 8 0  15.5 8 0  16 8 0  16.5 8 0  17 8 0  17.5 8 0  18 8 0  18.5 8 0  19 8 0  19.5 8 0  20 8 0  0 8.5 0  0.5 8.5 0  1 8.5 0  1.5 8.5 0  2 8.5 0  2.5 8.5 0  3 8.5 0  3.5 8.5 0  4 8.5 0  4.5 8.5 0  5 8.5 0  5.5 8.5 0  6 8.5 0  6.5 8.5 0  7 8.5 0  7.5 8.5 0  8 8.5 0  8.5 8.5 0  9 8.5 0  9.5 8.5 0  10 8.5 0  10.5 8.5 0  11 8.5 0  11.5 8.5 0  12 8.5 0  12.5 8.5 0  13 8.5 0  13.5 8.5 0  14 8.5 0  14.5 8.5 0  15 8.5 0  15.5 8.5 0  16 8.5 0  16.5 8.5 0  17 8.5 0  17.5 8.5 0  18 8.5 0  18.5 8.5 0  19 8.5 0  19.5 8.5 0  20 8.5 0  0 9 0  0.5 9 0  1 9 0  1.5 9 0  2 9 0  2.5 9 0  3 9 0  3.5 9 0  4 9 0  4.5 9 0  5 9 0  5.5 9 0  6 9 0  6.5 9 0  7 9 0  7.5 9 0  8 9 0  8.5 9 0  9 9 0  9.5 9 0  10 9 0  10.5 9 0  11 9 0  11.5 9 0  12 9 0  12.5 9 0  13 9 0  13.5 9 0  14 9 0  14.5 9 0  15 9 0  15.5 9 0  16 9 0  16.5 9 0  17 9 0  17.5 9 0  18 9 0  18.5 9 0  19 9 0  19.5 9 0  20 9 0  0 9.5 0  0.5 9.5 0  1 9.5 0  1.5 9.5 0  2 9.5 0  2.5 9.5 0  3 9.5 0  3.5 9.5 0  4 9.5 0  4.5 9.5 0  5 9.5 0  5.5 9.5 0  6 9.5 0  6.5 9.5 0  7 9.5 0  7.5 9.5 0  8 9.5 0  8.5 9.5 0  9 9.5 0  9.5 9.5 0  10 9.5 0  10.5 9.5 0  11 9.5 0  11.5 9.5 0  12 9.5 0  12.5 9.5 0  13 9.5 0  13.5 9.5 0  14 9.5 0  14.5 9.5 0  15 9.5 0  15.5 9.5 0  16 9.5 0  16.5 9.5 0  17 9.5 0  17.5 9.5 0  18 9.5 0  18.5 9.5 0  19 9.5 0  19.5 9.5 0  20 9.5 0  0 10 0  0.5 10 0  1 10 0  1.5 10 0  2 10 0  2.5 10 0  3 10 0  3.5 10 0  4 10 0  4.5 10 0  5 10 0  5.5 10 0  6 10 0  6.5 10 0  7 10 0  7.5 10 0  8 10 0  8.5 10 0  9 10 0  9.5 10 0  10 10 0  10.5 10 0  11 10 0  11.5 10 0  12 10 0  12.5 10 0  13 10 0  13.5 10 0  14 10 0  14.5 10 0  15 10 0  15.5 10 0  16 10 0  16.5 10 0  17 10 0  17.5 10 0  18 10 0  18.5 10 0  19 10 0  19.5 10 0  20 10 0  0 10.5 0  0.5 10.5 0  1 10.5 0  1.5 10.5 0  2 10.5 0  2.5 10.5 0  3 10.5 0  3.5 10.5 0  4 10.5 0  4.5 10.5 0  5 10.5 0  5.5 10.5 0  6 10.5 0  6.5 10.5 0  7 10.5 0  7.5 10.5 0  8 10.5 0  8.5 10.5 0  9 10.5 0  9.5 10.5 0  10 10.5 0  10.5 10.5 0  11 10.5 0  11.5 10.5 0  12 10.5 0  12.5 10.5 0  13 10.5 0  13.5 10.5 0  14 10.5 0  14.5 10.5 0  15 10.5 0  15.5 10.5 0  16 10.5 0  16.5 10.5 0  17 10.5 0  17.5 10.5 0  18 10.5 0  18.5 10.5 0  19 10.5 0  19.5 10.5 0  20 10.5 0  0 11 0  0.5 11 0  1 11 0  1.5 11 0  2 11 0  2.5 11 0  3 11 0  3.5 11 0  4 11 0  4.5 11 0  5 11 0  5.5 11 0  6 11 0  6.5 11 0  7 11 0  7.5 11 0  8 11 0  8.5 11 0  9 11 0  9.5 11 0  10 11 0  10.5 11 0  11 11 0  11.5 11 0  12 11 0  12.5 11 0  13 11 0  13.5 11 0  14 11 0  14.5 11 0  15 11 0  15.5 11 0  16 11 0  16.5 11 0  17 11 0  17.5 11 0  18 11 0  18.5 11 0  19 11 0  19.5 11 0  20 11 0  0 11.5 0  0.5 11.5 0  1 11.5 0  1.5 11.5 0  2 11.5 0  2.5 11.5 0  3 11.5 0  3.5 11.5 0  4 11.5 0  4.5 11.5 0  5 11.5 0  5.5 11.5 0  6 11.5 0  6.5 11.5 0  7 11.5 0  7.5 11.5 0  8 11.5 0  8.5 11.5 0  9 11.5 0  9.5 11.5 0  10 11.5 0  10.5 11.5 0  11 11.5 0  11.5 11.5 0  12 11.5 0  12.5 11.5 0  13 11.5 0  13.5 11.5 0  14 11.5 0  14.5 11.5 0  15 11.5 0  15.5 11.5 0  16 11.5 0  16.5 11.5 0  17 11.5 0  17.5 11.5 0  18 11.5 0  18.5 11.5 0  19 11.5 0  19.5 11.5 0  20 11.5 0  0 12 0  0.5 12 0  1 12 0  1.5 12 0  2 12 0  2.5 12 0  3 12 0  3.5 12 0  4 12 0  4.5 12 0  5 12 0  5.5 12 0  6 12 0  6.5 12 0  7 12 0  7.5 12 0  8 12 0  8.5 12 0  9 12 0  9.5 12 0  10 12 0  10.5 12 0  11 12 0  11.5 12 0  12 12 0  12.5 12 0  13 12 0  13.5 12 0  14 12 0  14.5 12 0  
[...]
<PointData  Vectors="f_5173-0"> 
<DataArray  type="Float64"  Name="f_5173-0"  NumberOfComponents="3" format="ascii">0.0000000000000000e+00 0.0000000000000000e+00 0.0000000000000000e+00  -6.3506641210271389e-10 0.0000000000000000e+00 0.0000000000000000e+00  -4.5027261339774605e-09 0.0000000000000000e+00 0.0000000000000000e+00  -1.4957469531837724e-08 0.0000000000000000e+00 0.0000000000000000e+00  -3.5266219928263380e-08 0.0000000000000000e+00 0.0000000000000000e+00  -6.8648909951159855e-08 0.0000000000000000e+00 0.0000000000000000e+00  -1.1826546157971450e-07 0.0000000000000000e+00 0.0000000000000000e+00  -1.8720012306404305e-07 0.0000000000000000e+00 0.0000000000000000e+00  -2.7844465349920674e-07 0.0000000000000000e+00 0.0000000000000000e+00  -3.9488028820619629e-07 0.0000000000000000e+00 0.0000000000000000e+00  -5.3925844959085695e-07 0.0000000000000000e+00 0.0000000000000000e+00  -7.1418015392217820e-07 0.0000000000000000e+00 0.0000000000000000e+00  -9.2207408580528581e-07 0.0000000000000000e+00 0.0000000000000000e+00  -1.1651733427883907e-06 0.0000000000000000e+00 0.0000000000000000e+00  -1.4454909115088946e-06 0.0000000000000000e+00 0.0000000000000000e+00  -1.7647940045784383e-06 0.0000000000000000e+00 0.0000000000000000e+00  -2.1245774678619730e-06 0.0000000000000000e+00 0.0000000000000000e+00  -2.5260365530468583e-06 0.0000000000000000e+00 0.0000000000000000e+00  -2.9700394560063743e-06 0.0000000000000000e+00 0.0000000000000000e+00  -3.4571001182497465e-06 0.0000000000000000e+00 0.0000000000000000e+00  -3.9873518933602779e-06 0.0000000000000000e+00 0.0000000000000000e+00  -4.5605227922175285e-06 0.0000000000000000e+00 0.0000000000000000e+00  -5.1759131018523920e-06 0.0000000000000000e+00 0.0000000000000000e+00  -5.8323762566845167e-06 0.0000000000000000e+00 0.0000000000000000e+00  -6.5283038725481170e-06 0.0000000000000000e+00 0.0000000000000000e+00  -7.2616158334702483e-06 0.0000000000000000e+00 0.0000000000000000e+00  -8.0297561825707777e-06 0.0000000000000000e+00 0.0000000000000000e+00  -8.8296952240384011e-06 0.0000000000000000e+00 0.0000000000000000e+00  -9.6579374604278561e-06 0.0000000000000000e+00 0.0000000000000000e+00  -1.0510533295249404e-05 0.0000000000000000e+00 0.0000000000000000e+00  -1.1383088610224433e-05 0.0000000000000000e+00 0.0000000000000000e+00  -1.2270757312424494e-05 0.0000000000000000e+00 0.0000000000000000e+00  -1.3168179064866450e-05 0.0000000000000000e+00 0.0000000000000000e+00  -1.4069260978475818e-05 0.0000000000000000e+00 0.0000000000000000e+00  -1.4966502480584741e-05 0.0000000000000000e+00 0.0000000000000000e+00  -1.5848803790150156e-05 0.0000000000000000e+00 0.0000000000000000e+00  -1.6693034491088440e-05 0.0000000000000000e+00 0.0000000000000000e+00  -1.7425451843044432e-05 0.0000000000000000e+00 0.0000000000000000e+00  -1.7812959950466880e-05 0.0000000000000000e+00 0.0000000000000000e+00  -2.0281960510196259e-05 0.0000000000000000e+00 0.0000000000000000e+00  4.2673185249665660e-05 0.0000000000000000e+00 0.0000000000000000e+00  0.0000000000000000e+00 -6.3506641239216652e-10 0.0000000000000000e+00  1.1334003776485897e-09 1.1334003773686110e-09 0.0000000000000000e+00  -1.0937347731379442e-09 6.0950316952132964e-09 0.0000000000000000e+00  -9.9016057295448268e-09 1.4325921867157310e-08 0.0000000000000000e+00  -2.8560479687052722e-08 2.5799524741077976e-08 0.0000000000000000e+00  -6.0293627137019829e-08 4.0465291961365549e-08 0.0000000000000000e+00  -1.0826273569526823e-07 5.8256068830616513e-08 0.0000000000000000e+00  -1.7555374949260276e-07 7.9088241183347971e-08 0.0000000000000000e+00  -2.6516053443826322e-07 1.0286073604276593e-07 0.0000000000000000e+00  -3.7996701672785457e-07 1.2945382873629482e-07 0.0000000000000000e+00  -5.2272798335377883e-07 1.5872786852747027e-07 0.0000000000000000e+00  -6.9604854452134169e-07 1.9052195482097849e-07 0.0000000000000000e+00  -9.0236223452961618e-07 2.2465258924533045e-07 0.0000000000000000e+00  -1.1439077534894885e-06 2.6091235569966403e-07 0.0000000000000000e+00  -1.4227044057531545e-06 2.9906869137582572e-07 0.0000000000000000e+00  -1.7405263563404264e-06 3.3886282178070854e-07 0.0000000000000000e+00  -2.0988759064027235e-06 3.8000894410456321e-07 0.0000000000000000e+00  -2.4989560760915952e-06 4.2219375563107106e-07 0.0000000000000000e+00  -2.9416428778747766e-06 4.6507642199022579e-07 0.0000000000000000e+00  -3.4274577663380806e-06 5.0828909413570125e-07 0.0000000000000000e+00  -3.9565408495757457e-06 5.5143807664418706e-07 0.0000000000000000e+00  -4.5286255466503124e-06 5.9410574203040767e-07 0.0000000000000000e+00  -5.1430154526700161e-06 6.3585327568255835e-07 0.0000000000000000e+00  -5.7985642340909928e-06 6.7622430313802978e-07 0.0000000000000000e+00  -6.4936593827079353e-06 7.1474939998171368e-07 0.0000000000000000e+00  -7.2262105809235067e-06 7.5095140074736764e-07 0.0000000000000000e+00  -7.9936432113996693e-06 7.8435124914697741e-07 0.0000000000000000e+00  -8.7928970457330760e-06 8.1447381122190079e-07 0.0000000000000000e+00  -9.6204291165303692e-06 8.4085238037576310e-07 0.0000000000000000e+00  -1.0472217645004814e-05 8.6302905235237287e-07 0.0000000000000000e+00  -1.1343759400673331e-05 8.8054441644588275e-07 0.0000000000000000e+00  -1.2230043035785533e-05 8.9290046320520585e-07 0.0000000000000000e+00  -1.3125458621951623e-05 8.9945443354206319e-07 0.0000000000000000e+00  -1.4023550954429634e-05 8.9912420975202152e-07 0.0000000000000000e+00  -1.4916397136105232e-05 8.8953999242269054e-07 0.0000000000000000e+00  -1.5793099971606056e-05 8.6443300399428338e-07 0.0000000000000000e+00  -1.6636570410407653e-05 8.0504734056697380e-07 0.0000000000000000e+00  -1.7422039420874009e-05 6.5183001234142593e-07 0.0000000000000000e+00  -1.8183122847616155e-05 2.3328094711500047e-07 0.0000000000000000e+00  -1.9701248665025664e-05 -6.6227113047153793e-07 0.0000000000000000e+00  4.4025355054621018e-05 -1.1357454342911587e-06 0.0000000000000000e+00  0.0000000000000000e+00 -4.5027261345351192e-09 0.0000000000000000e+00  6.0950316954650306e-09 -1.0937347736831555e-09 0.0000000000000000e+00  8.8226210332594590e-09 8.8226210327607799e-09 0.0000000000000000e+00  4.9692007893833958e-09 2.5288661742015252e-08 0.0000000000000000e+00  -8.7374396123069241e-09 4.8239811308658128e-08 0.0000000000000000e+00  -3.5521191491058407e-08 7.7575715099414911e-08 0.0000000000000000e+00  -7.8546400020023464e-08 1.1316371682068795e-07 0.0000000000000000e+00  -1.4090329236955693e-07 1.5483797819794239e-07 0.0000000000000000e+00  -2.2559168880747405e-07 2.0239766150582089e-07 0.0000000000000000e+00  -3.3550334540091416e-07 2.5560468121242260e-07 0.0000000000000000e+00  -4.7340294756264803e-07 3.1418119241548941e-07 0.0000000000000000e+00  -6.4190771742148062e-07 3.7780692232298348e-07 0.0000000000000000e+00  -8.4346559566687315e-07 4.4611643015318723e-07 0.0000000000000000e+00  -1.0803319816876014e-06 5.1869640964086185e-07 0.0000000000000000e+00  -1.3545450708172806e-06 5.9508315571622069e-07 0.0000000000000000e+00  -1.6678998867168691e-06 6.7476034333534735e-07 0.0000000000000000e+00  -2.0219211854098841e-06 7.5715728710908111e-07 0.0000000000000000e+00  -2.4178354878083973e-06 8.4164786430893600e-07 0.0000000000000000e+00  -2.8565425935148452e-06 9.2755029883543891e-07 0.0000000000000000e+00  -3.3385870165063080e-06 1.0141280078573026e-06 0.0000000000000000e+00  -3.8641298823078327e-06 1.1005917103099544e-06 0.0000000000000000e+00  -4.4329218935239653e-06 1.1861029760166010e-06 0.0000000000000000e+00  -5.0442780384104581e-06 1.2697793524378510e-06 0.0000000000000000e+00  -5.6970547203978608e-06 1.3507011371298191e-06 0.0000000000000000e+00  -6.3896299236043250e-06 1.4279197285269825e-06 0.0000000000000000e+00  -7.1198868420042400e-06 1.5004672738781585e-06 0.0000000000000000e+00  -7.8852009941740241e-06 1.5673669179523062e-06 0.0000000000000000e+00  -8.6824300688676467e-06 1.6276421991258326e-06 0.0000000000000000e+00  -9.5079043281992074e-06 1.6803226039588224e-06 0.0000000000000000e+00  -1.0357412811697362e-05 1.7244390825412829e-06 0.0000000000000000e+00  -1.1226175978729372e-05 1.7589962504059545e-06 0.0000000000000000e+00  -1.2108787415057555e-05 1.7828918178051622e-06 0.0000000000000000e+00  -1.2999094503297210e-05 1.7947153189071240e-06 0.0000000000000000e+00  -1.3889973116158916e-05 1.7922643163860890e-06 0.0000000000000000e+00  -1.4772961082867438e-05 1.7713845576189713e-06 0.0000000000000000e+00  -1.5637890108298933e-05 1.7231878055650233e-06 0.0000000000000000e+00  -1.6473636871426676e-05 1.6275982939768170e-06 0.0000000000000000e+00  -1.7275542652086826e-05 1.4406742004052721e-06 0.0000000000000000e+00  -1.8080820523224353e-05 1.0855054023811745e-06 0.0000000000000000e+00  -1.9096905231175634e-05 5.2362359646999507e-07 0.0000000000000000e+00  4.5354459241879191e-05 -2.2491340653503785e-07 0.0000000000000000e+00  0.0000000000000000e+00 -1.4957469532632108e-08 0.0000000000000000e+00  1.4325921867378829e-08 -9.9016057303244958e-09 0.0000000000000000e+00  2.5288661742456539e-08 4.9692007886547100e-09 0.0000000000000000e+00  2.9669216419498684e-08 2.9669216418844384e-08 0.0000000000000000e+00  2.4195442965754936e-08 6.4098820421198018e-08 0.0000000000000000e+00  5.6409689460310657e-09 1.0810899649969072e-07 0.0000000000000000e+00  -2.9162768190806612e-08 1.6150297976357523e-07 0.0000000000000000e+00  -8.3312664078844168e-08 2.2403464719831368e-07 0.0000000000000000e+00  -1.5981807677334502e-07 2.9540575061538311e-07 0.0000000000000000e+00  -2.6158350479992362e-07 3.7526250549565691e-07 0.0000000000000000e+00  -3.9138988623603279e-07 4.6319176476352032e-07 0.0000000000000000e+00  -5.5187445221924901e-07 5.5871693196804066e-07 0.0000000000000000e+00  -7.4550905762134677e-07 6.6129373803382051e-07 0.0000000000000000e+00  -9.7457694505654736e-07 7.7030604949007345e-07 0.0000000000000000e+00  -1.2411479451963408e-06 8.8506188495355424e-07 0.0000000000000000e+00  -1.5470521765509538e-06 1.0047898656449966e-06 0.0000000000000000e+00  -1.8938523792563583e-06 1.1286363373518777e-06 0.0000000000000000e+00  -2.2828150992389719e-06 1.2556634407079902e-06 0.0000000000000000e+00  -2.7148810200594255e-06 1.3848484127345727e-06 0.0000000000000000e+00  -3.1906348306015869e-06 1.5150844124977190e-06 0.0000000000000000e+00  -3.7102750919263799e-06 1.6451831479369225e-06 0.0000000000000000e+00  -4.2735846338286351e-06 1.7738795445260490e-06 0.0000000000000000e+00  -4.8799020334166933e-06 1.8998386114013522e-06 0.0000000000000000e+00  -5.5280947032010894e-06 2.0216645246513197e-06 0.0000000000000000e+00  -6.2165339863564788e-06 2.1379117049178487e-06 0.0000000000000000e+00  -6.9430723727090782e-06 2.2470972632653267e-06 0.0000000000000000e+00  -7.7050224235705517e-06 2.3477134667397392e-06 0.0000000000000000e+00  -8.4991360781513592e-06 2.4382376158104763e-06 0.0000000000000000e+00  -9.3215815179712440e-06 2.5171343286172033e-06 0.0000000000000000e+00  -1.0167912433108953e-05 2.5828406555670863e-06 0.0000000000000000e+00  -1.1033021202261524e-05 2.6337153646438083e-06 0.0000000000000000e+00  -1.1911063692878234e-05 2.6679154646629681e-06 0.0000000000000000e+00  -1.2795342330505626e-05 2.6831260871779236e-06 0.0000000000000000e+00  -1.3678148266884593e-05 2.6759968173064528e-06 0.0000000000000000e+00  -1.4550633977079941e-05 2.6410043964311280e-06 0.0000000000000000e+00  -1.5403035712746353e-05 2.5682755820513583e-06 0.0000000000000000e+00  -1.6226297841031962e-05 2.4399211327556776e-06 0.0000000000000000e+00  -1.7017872875161436e-05 2.2260340137935691e-06 0.0000000000000000e+00  -1.7796251407417302e-05 1.8892186801173370e-06 0.0000000000000000e+00  -1.8655663494936229e-05 1.4224170266086731e-06 0.0000000000000000e+00  4.5878060078327123e-05 8.9546184047808139e-07 0.0000000000000000e+00  0.0000000000000000e+00 -3.5266219929261655e-08 0.0000000000000000e+00  2.5799524741257087e-08 -2.8560479688033318e-08 0.0000000000000000e+00  4.8239811309021200e-08 -8.7374396132367363e-09 0.0000000000000000e+00  6.4098820421742660e-08 2.4195442964912403e-08 0.0000000000000000e+00  7.0104606672744594e-08 7.0104606672035681e-08 0.0000000000000000e+00  6.3027755642577297e-08 1.2879384544258239e-07 0.0000000000000000e+00  3.9694169665708481e-08 2.0000482762659284e-07 0.0000000000000000e+00  -3.0018375457491098e-09 2.8341430334007241e-07 0.0000000000000000e+00  -6.8082359991257848e-08 3.7863024708138461e-07 0.0000000000000000e+00  -1.5846915197541866e-07 4.8518723186655630e-07 0.0000000000000000e+00  -2.7696540579498053e-07 6.0254122511423985e-07 0.0000000000000000e+00  -4.2623598535612910e-07 7.3006398519184250e-07 0.0000000000000000e+00  -6.0878600688131518e-07 8.6703722496997295e-07 0.0000000000000000e+00  -8.2693768965866214e-07 1.0126467557476511e-06 0.0000000000000000e+00  -1.0828054271514157e-06 1.1659768519366464e-06 0.0000000000000000e+00  -1.3782691023993775e-06 1.3260051170851494e-06 0.0000000000000000e+00  -1.7149457254792634e-06 1.4915981730230411e-06 0.0000000000000000e+00  -2.0941595553411948e-06 1.6615085228940048e-06 0.0000000000000000e+00  -2.5169109439115527e-06 1.8343729610940499e-06 0.0000000000000000e+00  -2.9838442287428945e-06 2.0087129008829405e-06 0.0000000000000000e+00  -3.4952150694396088e-06 2.1829369680374907e-06 0.0000000000000000e+00  -4.0508576840191580e-06 2.3553461445136245e-06 0.0000000000000000e+00  -4.6501524594656203e-06 2.5241416126819563e-06 0.0000000000000000e+00  -5.2919943726921375e-06 2.6874352377269873e-06 0.0000000000000000e+00  -5.9747625217673795e-06 2.8432622613849296e-06 0.0000000000000000e+00  -6.6962907982669861e-06 2.9895951753222754e-06 0.0000000000000000e+00  -7.4538392571283264e-06 3.1243567489162206e-06 0.0000000000000000e+00  -8.2440650174895080e-06 3.2454284954246545e-06 0.0000000000000000e+00  -9.0629905353076809e-06 3.3506479437317896e-06 0.0000000000000000e+00  -9.9059659772902742e-06 3.4377829733143076e-06 0.0000000000000000e+00  -1.0767621895056657e-05 3.5044624867555523e-06 0.0000000000000000e+00  -1.1641810578975273e-05 3.5480271153978094e-06 0.0000000000000000e+00  -1.2521545321358803e-05 3.5652379777211509e-06 0.0000000000000000e+00  -1.3398981420056340e-05 3.5517447503640960e-06 0.0000000000000000e+00  -1.4265576231132068e-05 3.5011828165487062e-06 0.0000000000000000e+00  -1.5112787771368790e-05 3.4038293289885019e-06 0.0000000000000000e+00  -1.5934112301315603e-05 3.2452056915129723e-06 0.0000000000000000e+00  -1.6729815247361821e-05 3.0066883667992631e-06 0.0000000000000000e+00  -1.7515066203432365e-05 2.6743539181817221e-06 0.0000000000000000e+00  -1.8364494207148616e-05 2.2673944762518838e-06 0.0000000000000000e+00  4.6183144787849307e-05 1.8795358677690313e-06 0.0000000000000000e+00  0.0000000000000000e+00 -6.8648909952314771e-08 0.0000000000000000e+00  4.0465291961496442e-08 -6.0293627138153701e-08 0.0000000000000000e+00  7.7575715099672092e-08 -3.5521191492149100e-08 0.0000000000000000e+00  1.0810899650007593e-07 5.6409689450335405e-09 0.0000000000000000e+00  1.2879384544309601e-07 6.3027755641728809e-08 0.0000000000000000e+00  1.3639837384729680e-07 1.3639837384666219e-07 0.0000000000000000e+00  1.2774249037107546e-07 2.2543625005265958e-07 0.0000000000000000e+00  9.9710257726757793e-08 3.2974514445171511e-07 0.0000000000000000e+00  4.9264243112109296e-08 4.4884411838939528e-07 0.0000000000000000e+00  -2.6538507254011246e-08 5.8216159219251939e-07 0.0000000000000000e+00  -1.3052892434901985e-07 7.2902866456188209e-07 0.0000000000000000e+00  -2.6540670418474599e-07 8.8867186262633836e-07 0.0000000000000000e+00  -4.3371928740598327e-07 1.0602055316518713e-06 0.0000000000000000e+00  -6.3783890413638612e-07 1.2426241074594644e-06 0.0000000000000000e+00  -8.7993759070307760e-07 1.4347945672174877e-06 0.0000000000000000e+00  -1.1619601359918525e-06 1.6354494006330266e-06 0.0000000000000000e+00  -1.4855949830941102e-06 1.8431804928526902e-06 0.0000000000000000e+00  -1.8522431791091998e-06 2.0564343494325538e-06 0.0000000000000000e+00  -2.2629855573528585e-06 2.2735091216177105e-06 0.0000000000000000e+00  -2.7185484136003110e-06 2.4925538803815240e-06 0.0000000000000000e+00  -3.2192680255733670e-06 2.7115705637929237e-06 0.0000000000000000e+00  -3.7650544333064755e-06 2.9284189239610854e-06 0.0000000000000000e+00  -4.3553549428141859e-06 3.1408246349408328e-06 0.0000000000000000e+00  -4.9891178171600494e-06 3.3463904325478692e-06 0.0000000000000000e+00  -5.6647565598545970e-06 3.5426097024673568e-06 0.0000000000000000e+00  -6.3801150610855237e-06 3.7268811877064419e-06 0.0000000000000000e+00  -7.1324336688256998e-06 3.8965223439330882e-06 0.0000000000000000e+00  -7.9183160254191086e-06 4.0487770409981739e-06 0.0000000000000000e+00  -8.7336964792598879e-06 4.1808104529338920e-06 0.0000000000000000e+00  -9.5738085750606764e-06 4.2896795347975343e-06 0.0000000000000000e+00  -1.0433157853087775e-05 4.3722608629159943e-06 0.0000000000000000e+00  -1.1305509861114797e-05 4.4251086424917746e-06 0.0000000000000000e+00  -1.2183923089944641e-05 4.4442065728708010e-06 0.0000000000000000e+00  -1.3060898331208133e-05 4.4245782648206799e-06 0.0000000000000000e+00  -1.3928799787396143e-05 4.3597654485791327e-06 0.0000000000000000e+00  -1.4780845910460555e-05 4.2413611284032285e-06 0.0000000000000000e+00  -1.5613128416252971e-05 4.0592913742354799e-06 0.0000000000000000e+00  -1.6428006723362809e-05 3.8046491410843232e-06 0.0000000000000000e+00  -1.7237838611557788e-05 3.4784422359447687e-06 0.0000000000000000e+00  -1.8102351198591419e-05 3.1094520994337224e-06 0.0000000000000000e+00  4.6465207633415923e-05 2.7656772797145323e-06 0.0000000000000000e+00  0.0000000000000000e+00 -1.1826546158096223e-07 0.0000000000000000e+00  5.8256068830670465e-08 -1.0826273569649793e-07 0.0000000000000000e+00  1.1316371682079795e-07 -7.8546400021200125e-08 0.0000000000000000e+00  1.6150297976374154e-07 -2.9162768191899463e-08 0.0000000000000000e+00  2.0000482762683250e-07 3.9694169664752723e-08 0.0000000000000000e+00  2.2543625005298431e-07 1.2774249037033422e-07 0.0000000000000000e+00  2.3461165948586341e-07 2.3461165948544259e-07 0.0000000000000000e+00  2.2440433137486537e-07 3.5983766562530293e-07 0.0000000000000000e+00  1.9175975587486021e-07 5.0285678807824365e-07 0.0000000000000000e+00  1.3371063924718855e-07 6.6299826272295034e-07 0.0000000000000000e+00  4.7393556602999954e-08 8.3947601097300906e-07 0.0000000000000000e+00  -6.9932599442043582e-08 1.0313796025038682e-06 0.0000000000000000e+00  -2.2086618990725094e-07 1.2376646807662813e-06 0.0000000000000000e+00  -4.0784024133126543e-07 1.4571431232565005e-06 0.0000000000000000e+00  -6.3309754325747092e-07 1.6884732778209142e-06 0.0000000000000000e+00  -8.9866332727954515e-07 1.9301506762211455e-06 0.0000000000000000e+00  -1.2063154827813843e-06 2.1804996825962773e-06 0.0000000000000000e+00  -1.5575523391521872e-06 2.4376665916117238e-06 0.0000000000000000e+00  -1.9535581353125908e-06 2.6996147162699756e-06 0.0000000000000000e+00  -2.3951663924283556e-06 2.9641220127793791e-06 0.0000000000000000e+00  -2.8828215094354166e-06 3.2287817533029249e-06 0.0000000000000000e+00  -3.4165390098658656e-06 3.4910066525360038e-06 0.0000000000000000e+00  -3.9958649656761093e-06 3.7480366653950891e-06 0.0000000000000000e+00  -4.6198352160932093e-06 3.9969503503590561e-06 0.0000000000000000e+00  -5.2869350870579422e-06 4.2346791979151159e-06 0.0000000000000000e+00  -5.9950604142269034e-06 4.4580235582500556e-06 0.0000000000000000e+00  -6.7414808498037030e-06 4.6636676902510981e-06 0.0000000000000000e+00  -7.5228068494835533e-06 4.8481898481560532e-06 0.0000000000000000e+00  -8.3349627206309084e-06 5.0080611173671107e-06 0.0000000000000000e+00  -9.1731703960494331e-06 5.1396239081528011e-06 0.0000000000000000e+00  -1.0031953537735644e-05 5.2390380856454757e-06 0.0000000000000000e+00  -1.0905181676440334e-05 5.3021815142593059e-06 0.0000000000000000e+00  -1.1786193340862323e-05 5.3244976417467678e-06 0.0000000000000000e+00  -1.2668070440671115e-05 5.3008090168822863e-06 0.0000000000000000e+00  -1.3544184545226104e-05 5.225191