<?xml version="1.0"?>
<VTKFile type="UnstructuredGrid"  version="0.1"  >
<UnstructuredGrid>
<Piece  NumberOfPoints="1681" NumberOfCells="3200">
<Points>
<DataArray  type="Float64"  NumberOfComponents="3"  format="ascii">0 0 0  0.5 0 0  1 0 0  1.5 0 0  2 0 0  2.5 0 0  3 0 0  3.5 0 0  4 0 0  4.5 0 0  5 0 0  5.5 0 0  6 0 0  6.5 0 0  7 0 0  7.5 0 0  8 0 0  8.5 0 0  9 0 0  9.5 0 0  10 0 0  10.5 0 0  11 0 0  11.5 0 0  12 0 0  12.5 0 0  13 0 0  13.5 0 0  14 0 0  14.5 0 0  15 0 0  15.5 0 0  16 0 0  16.5 0 0  17 0 0  17.5 0 0  18 0 0  18.5 0 0  19 0 0  19.5 0 0  20 0 0  0 0.5 0  0.5 0.5 0  1 0.5 0  1.5 0.5 0  2 0.5 0  2.5 0.5 0  3 0.5 0  3.5 0.5 0  4 0.5 0  4.5 0.5 0  5 0.5 0  5.5 0.5 0  6 0.5 0  6.5 0.5 0  7 0.5 0  7.5 0.5 0  8 0.5 0  8.5 0.5 0  9 0.5 0  9.5 0.5 0  10 0.5 0  10.5 0.5 0  11 0.5 0  11.5 0.5 0  12 0.5 0  12.5 0.5 0  13 0.5 0  13.5 0.5 0  14 0.5 0  14.5 0.5 0  15 0.5 0  15.5 0.5 0  16 0.5 0  16.5 0.5 0  17 0.5 0  17.5 0.5 0  18 0.5 0  18.5 0.5 0  19 0.5 0  19.5 0.5 0  20 0.5 0  0 1 0  0.5 1 0  1 1 0  1.5 1 0  2 1 0  2.5 1 0  3 1 0  3.5 1 0  4 1 0  4.5 1 0  5 1 0  5.5 1 0  6 1 0  6.5 1 0  7 1 0  7.5 1 0  8 1 0  8.5 1 0  9 1 0  9.5 1 0  10 1 0  10.5 1 0  11 1 0  11.5 1 0  12 1 0  12.5 1 0  13 1 0  13.5 1 0  14 1 0  14.5 1 0  15 1 0  15.5 1 0  16 1 0  16.5 1 0  17 1 0  17.5 1 0  18 1 0  18.5 1 0  19 1 0  19.5 1 0  20 1 0  0 1.5 0  0.5 1.5 0  1 1.5 0  1.5 1.5 0  2 1.5 0  2.5 1.5 0  3 1.5 0  3.5 1.5 0  4 1.5 0  4.5 1.5 0  5 1.5 0  5.5 1.5 0  6 1.5 0  6.5 1.5 0  7 1.5 0  7.5 1.5 0  8 1.5 0  8.5 1.5 0  9 1.5 0  9.5 1.5 0  10 1.5 0  10.5 1.5 0  11 1.5 0  11.5 1.5 0  12 1.5 0  12.5 1.5 0  13 1.5 0  13.5 1.5 0  14 1.5 0  14.5 1.5 0  15 1.5 0  15.5 1.5 0  16 1.5 0  16.5 1.5 0  17 1.5 0  17.5 1.5 0  18 1.5 0  18.5 1.5 0  19 1.5 0  19.5 1.5 0  20 1.5 0  0 2 0  0.5 2 0  1 2 0  1.5 2 0  2 2 0  2.5 2 0  3 2 0  3.5 2 0  4 2 0  4.5 2 0  5 2 0  5.5 2 0  6 2 0  6.5 2 0  7 2 0  7.5 2 0  8 2 0  8.5 2 0  9 2 0  9.5 2 0  10 2 0  10.5 2 0  11 2 0  11.5 2 0  12 2 0  12.5 2 0  13 2 0  13.5 2 0  14 2 0  14.5 2 0  15 2 0  15.5 2 0  16 2 0  16.5 2 0  17 2 0  17.5 2 0  18 2 0  18.5 2 0  19 2 0  19.5 2 0  20 2 0  0 2.5 0  0.5 2.5 0  1 2.5 0  1.5 2.5 0  2 2.5 0  2.5 2.5 0  3 2.5 0  3.5 2.5 0  4 2.5 0  4.5 2.5 0  5 2.5 0  5.5 2.5 0  6 2.5 0  6.5 2.5 0  7 2.5 0  7.5 2.5 0  8 2.5 0  8.5 2.5 0  9 2.5 0  9.5 2.5 0  10 2.5 0  10.5 2.5 0  11 2.5 0  11.5 2.5 0  12 2.5 0  12.5 2.5 0  13 2.5 0  13.5 2.5 0  14 2.5 0  14.5 2.5 0  15 2.5 0  15.5 2.5 0  16 2.5 0  16.5 2.5 0  17 2.5 0  17.5 2.5 0  18 2.5 0  18.5 2.5 0  19 2.5 0  19.5 2.5 0  20 2.5 0  0 3 0  0.5 3 0  1 3 0  1.5 3 0  2 3 0  2.5 3 0  3 3 0  3.5 3 0  4 3 0  4.5 3 0  5 3 0  5.5 3 0  6 3 0  6.5 3 0  7 3 0  7.5 3 0  8 3 0  8.5 3 0  9 3 0  9.5 3 0  10 3 0  10.5 3 0  11 3 0  11.5 3 0  12 3 0  12.5 3 0  13 3 0  13.5 3 0  14 3 0  14.5 3 0  15 3 0  15.5 3 0  16 3 0  16.5 3 0  17 3 0  17.5 3 0  18 3 0  18.5 3 0  19 3 0  19.5 3 0  20 3 0  0 3.5 0  0.5 3.5 0  1 3.5 0  1.5 3.5 0  2 3.5 0  2.5 3.5 0  3 3.5 0  3.5 3.5 0  4 3.5 0  4.5 3.5 0  5 3.5 0  5.5 3.5 0  6 3.5 0  6.5 3.5 0  7 3.5 0  7.5 3.5 0  8 3.5 0  8.5 3.5 0  9 3.5 0  9.5 3.5 0  10 3.5 0  10.5 3.5 0  11 3.5 0  11.5 3.5 0  12 3.5 0  12.5 3.5 0  13 3.5 0  13.5 3.5 0  14 3.5 0  14.5 3.5 0  15 3.5 0  15.5 3.5 0  16 3.5 0  16.5 3.5 0  17 3.5 0  17.5 3.5 0  18 3.5 0  18.5 3.5 0  19 3.5 0  19.5 3.5 0  20 3.5 0  0 4 0  0.5 4 0  1 4 0  1.5 4 0  2 4 0  2.5 4 0  3 4 0  3.5 4 0  4 4 0  4.5 4 0  5 4 0  5.5 4 0  6 4 0  6.5 4 0  7 4 0  7.5 4 0  8 4 0  8.5 4 0  9 4 0  9.5 4 0  10 4 0  10.5 4 0  11 4 0  11.5 4 0  12 4 0  12.5 4 0  13 4 0  13.5 4 0  14 4 0  14.5 4 0  15 4 0  15.5 4 0  16 4 0  16.5 4 0  17 4 0  17.5 4 0  18 4 0  18.5 4 0  19 4 0  19.5 4 0  20 4 0  0 4.5 0  0.5 4.5 0  1 4.5 0  1.5 4.5 0  2 4.5 0  2.5 4.5 0  3 4.5 0  3.5 4.5 0  4 4.5 0  4.5 4.5 0  5 4.5 0  5.5 4.5 0  6 4.5 0  6.5 4.5 0  7 4.5 0  7.5 4.5 0  8 4.5 0  8.5 4.5 0  9 4.5 0  9.5 4.5 0  10 4.5 0  10.5 4.5 0  11 4.5 0  11.5 4.5 0  12 4.5 0  12.5 4.5 0  13 4.5 0  13.5 4.5 0  14 4.5 0  14.5 4.5 0  15 4.5 0  15.5 4.5 0  16 4.5 0  16.5 4.5 0  17 4.5 0  17.5 4.5 0  18 4.5 0  18.5 4.5 0  19 4.5 0  19.5 4.5 0  20 4.5 0  0 5 0  0.5 5 0  1 5 0  1.5 5 0  2 5 0  2.5 5 0  3 5 0  3.5 5 0  4 5 0  4.5 5 0  5 5 0  5.5 5 0  6 5 0  6.5 5 0  7 5 0  7.5 5 0  8 5 0  8.5 5 0  9 5 0  9.5 5 0  10 5 0  10.5 5 0  11 5 0  11.5 5 0  12 5 0  12.5 5 0  13 5 0  13.5 5 0  14 5 0  14.5 5 0  15 5 0  15.5 5 0  16 5 0  16.5 5 0  17 5 0  17.5 5 0  18 5 0  18.5 5 0  19 5 0  19.5 5 0  20 5 0  0 5.5 0  0.5 5.5 0  1 5.5 0  1.5 5.5 0  2 5.5 0  2.5 5.5 0  3 5.5 0  3.5 5.5 0  4 5.5 0  4.5 5.5 0  5 5.5 0  5.5 5.5 0  6 5.5 0  6.5 5.5 0  7 5.5 0  7.5 5.5 0  8 5.5 0  8.5 5.5 0  9 5.5 0  9.5 5.5 0  10 5.5 0  10.5 5.5 0  11 5.5 0  11.5 5.5 0  12 5.5 0  12.5 5.5 0  13 5.5 0  13.5 5.5 0  14 5.5 0  14.5 5.5 0  15 5.5 0  15.5 5.5 0  16 5.5 0  16.5 5.5 0  17 5.5 0  17.5 5.5 0  18 5.5 0  18.5 5.5 0  19 5.5 0  19.5 5.5 0  20 5.5 0  0 6 0  0.5 6 0  1 6 0  1.5 6 0  2 6 0  2.5 6 0  3 6 0  3.5 6 0  4 6 0  4.5 6 0  5 6 0  5.5 6 0  6 6 0  6.5 6 0  7 6 0  7.5 6 0  8 6 0  8.5 6 0  9 6 0  9.5 6 0  10 6 0  10.5 6 0  11 6 0  11.5 6 0  12 6 0  12.5 6 0  13 6 0  13.5 6 0  14 6 0  14.5 6 0  15 6 0  15.5 6 0  16 6 0  16.5 6 0  17 6 0  17.5 6 0  18 6 0  18.5 6 0  19 6 0  19.5 6 0  20 6 0  0 6.5 0  0.5 6.5 0  1 6.5 0  1.5 6.5 0  2 6.5 0  2.5 6.5 0  3 6.5 0  3.5 6.5 0  4 6.5 0  4.5 6.5 0  5 6.5 0  5.5 6.5 0  6 6.5 0  6.5 6.5 0  7 6.5 0  7.5 6.5 0  8 6.5 0  8.5 6.5 0  9 6.5 0  9.5 6.5 0  10 6.5 0  10.5 6.5 0  11 6.5 0  11.5 6.5 0  12 6.5 0  12.5 6.5 0  13 6.5 0  13.5 6.5 0  14 6.5 0  14.5 6.5 0  15 6.5 0  15.5 6.5 0  16 6.5 0  16.5 6.5 0  17 6.5 0  17.5 6.5 0  18 6.5 0  18.5 6.5 0  19 6.5 0  19.5 6.5 0  20 6.5 0  0 7 0  0.5 7 0  1 7 0  1.5 7 0  2 7 0  2.5 7 0  3 7 0  3.5 7 0  4 7 0  4.5 7 0  5 7 0  5.5 7 0  6 7 0  6.5 7 0  7 7 0  7.5 7 0  8 7 0  8.5 7 0  9 7 0  9.5 7 0  10 7 0  10.5 7 0  11 7 0  11.5 7 0  12 7 0  12.5 7 0  13 7 0  13.5 7 0  14 7 0  14.5 7 0  15 7 0  15.5 7 0  16 7 0  16.5 7 0  17 7 0  17.5 7 0  18 7 0  18.5 7 0  19 7 0  19.5 7 0  20 7 0  0 7.5 0  0.5 7.5 0  1 7.5 0  1.5 7.5 0  2 7.5 0  2.5 7.5 0  3 7.5 0  3.5 7.5 0  4 7.5 0  4.5 7.5 0  5 7.5 0  5.5 7.5 0  6 7.5 0  6.5 7.5 0  7 7.5 0  7.5 7.5 0  8 7.5 0  8.5 7.5 0  9 7.5 0  9.5 7.5 0  10 7.5 0  10.5 7.5 0  11 7.5 0  11.5 7.5 0  12 7.5 0  12.5 7.5 0  13 7.5 0  13.5 7.5 0  14 7.5 0  14.5 7.5 0  15 7.5 0  15.5 7.5 0  16 7.5 0  16.5 7.5 0  17 7.5 0  17.5 7.5 0  18 7.5 0  18.5 7.5 0  19 7.5 0  19.5 7.5 0  20 7.5 0  0 8 0  0.5 8 0  1 8 0  1.5 8 0  2 8 0  2.5 8 0  3 8 0  3.5 8 0  4 8 0  4.5 8 0  5 8 0  5.5 8 0  6 8 0  6.5 8 0  7 8 0  7.5 8 0  8 8 0  8.5 8 0  9 8 0  9.5 8 0  10 8 0  10.5 8 0  11 8 0  11.5 8 0  12 8 0  12.5 8 0  13 8 0  13.5 8 0  14 8 0  14.5 8 0  15 8 0  15.5 8 0  16 8 0  16.5 8 0  17 8 0  17.5 8 0  18 8 0  18.5 8 0  19 8 0  19.5 8 0  20 8 0  0 8.5 0  0.5 8.5 0  1 8.5 0  1.5 8.5 0  2 8.5 0  2.5 8.5 0  3 8.5 0  3.5 8.5 0  4 8.5 0  4.5 8.5 0  5 8.5 0  5.5 8.5 0  6 8.5 0  6.5 8.5 0  7 8.5 0  7.5 8.5 0  8 8.5 0  8.5 8.5 0  9 8.5 0  9.5 8.5 0  10 8.5 0  10.5 8.5 0  11 8.5 0  11.5 8.5 0  12 8.5 0  12.5 8.5 0  13 8.5 0  13.5 8.5 0  14 8.5 0  14.5 8.5 0  15 8.5 0  15.5 8.5 0  16 8.5 0  16.5 8.5 0  17 8.5 0  17.5 8.5 0  18 8.5 0  18.5 8.5 0  19 8.5 0  19.5 8.5 0  20 8.5 0  0 9 0  0.5 9 0  1 9 0  1.5 9 0  2 9 0  2.5 9 0  3 9 0  3.5 9 0  4 9 0  4.5 9 0  5 9 0  5.5 9 0  6 9 0  6.5 9 0  7 9 0  7.5 9 0  8 9 0  8.5 9 0  9 9 0  9.5 9 0  10 9 0  10.5 9 0  11 9 0  11.5 9 0  12 9 0  12.5 9 0  13 9 0  13.5 9 0  14 9 0  14.5 9 0  15 9 0  15.5 9 0  16 9 0  16.5 9 0  17 9 0  17.5 9 0  18 9 0  18.5 9 0  19 9 0  19.5 9 0  20 9 0  0 9.5 0  0.5 9.5 0  1 9.5 0  1.5 9.5 0  2 9.5 0  2.5 9.5 0  3 9.5 0  3.5 9.5 0  4 9.5 0  4.5 9.5 0  5 9.5 0  5.5 9.5 0  6 9.5 0  6.5 9.5 0  7 9.5 0  7.5 9.5 0  8 9.5 0  8.5 9.5 0  9 9.5 0  9.5 9.5 0  10 9.5 0  10.5 9.5 0  11 9.5 0  11.5 9.5 0  12 9.5 0  12.5 9.5 0  13 9.5 0  13.5 9.5 0  14 9.5 0  14.5 9.5 0  15 9.5 0  15.5 9.5 0  16 9.5 0  16.5 9.5 0  17 9.5 0  17.5 9.5 0  18 9.5 0  18.5 9.5 0  19 9.5 0  19.5 9.5 0  20 9.5 0  0 10 0  0.5 10 0  1 10 0  1.5 10 0  2 10 0  2.5 10 0  3 10 0  3.5 10 0  4 10 0  4.5 10 0  5 10 0  5.5 10 0  6 10 0  6.5 10 0  7 10 0  7.5 10 0  8 10 0  8.5 10 0  9 10 0  9.5 10 0  10 10 0  10.5 10 0  11 10 0  11.5 10 0  12 10 0  12.5 10 0  13 10 0  13.5 10 0  14 10 0  14.5 10 0  15 10 0  15.5 10 0  16 10 0  16.5 10 0  17 10 0  17.5 10 0  18 10 0  18.5 10 0  19 10 0  19.5 10 0  20 10 0  0 10.5 0  0.5 10.5 0  1 10.5 0  1.5 10.5 0  2 10.5 0  2.5 10.5 0  3 10.5 0  3.5 10.5 0  4 10.5 0  4.5 10.5 0  5 10.5 0  5.5 10.5 0  6 10.5 0  6.5 10.5 0  7 10.5 0  7.5 10.5 0  8 10.5 0  8.5 10.5 0  9 10.5 0  9.5 10.5 0  10 10.5 0  10.5 10.5 0  11 10.5 0  11.5 10.5 0  12 10.5 0  12.5 10.5 0  13 10.5 0  13.5 10.5 0  14 10.5 0  14.5 10.5 0  15 10.5 0  15.5 10.5 0  16 10.5 0  16.5 10.5 0  17 10.5 0  17.5 10.5 0  18 10.5 0  18.5 10.5 0  19 10.5 0  19.5 10.5 0  20 10.5 0  0 11 0  0.5 11 0  1 11 0  1.5 11 0  2 11 0  2.5 11 0  3 11 0  3.5 11 0  4 11 0  4.5 11 0  5 11 0  5.5 11 0  6 11 0  6.5 11 0  7 11 0  7.5 11 0  8 11 0  8.5 11 0  9 11 0  9.5 11 0  10 11 0  10.5 11 0  11 11 0  11.5 11 0  12 11 0  12.5 11 0  13 11 0  13.5 11 0  14 11 0  14.5 11 0  15 11 0  15.5 11 0  16 11 0  16.5 11 0  17 11 0  17.5 11 0  18 11 0  18.5 11 0  19 11 0  19.5 11 0  20 11 0  0 11.5 0  0.5 11.5 0  1 11.5 0  1.5 11.5 0  2 11.5 0  2.5 11.5 0  3 11.5 0  3.5 11.5 0  4 11.5 0  4.5 11.5 0  5 11.5 0  5.5 11.5 0  6 11.5 0  6.5 11.5 0  7 11.5 0  7.5 11.5 0  8 11.5 0  8.5 11.5 0  9 11.5 0  9.5 11.5 0  10 11.5 0  10.5 11.5 0  11 11.5 0  11.5 11.5 0  12 11.5 0  12.5 11.5 0  13 11.5 0  13.5 11.5 0  14 11.5 0  14.5 11.5 0  15 11.5 0  15.5 11.5 0  16 11.5 0  16.5 11.5 0  17 11.5 0  17.5 11.5 0  18 11.5 0  18.5 11.5 0  19 11.5 0  19.5 11.5 0  20 11.5 0  0 12 0  0.5 12 0  1 12 0  1.5 12 0  2 12 0  2.5 12 0  3 12 0  3.5 12 0  4 12 0  4.5 12 0  5 12 0  5.5 12 0  6 12 0  6.5 12 0  7 12 0  7.5 12 0  8 12 0  8.5 12 0  9 12 0  9.5 12 0  10 12 0  10.5 12 0  11 12 0  11.5 12 0  12 12 0  12.5 12 0  13 12 0  13.5 12 0  14 12 0  14.5 12 0  
[...]
<PointData  Vectors="f_5173-0"> 
<DataArray  type="Float64"  Name="f_5173-0"  NumberOfComponents="3" format="ascii">0.0000000000000000e+00 0.0000000000000000e+00 0.0000000000000000e+00  -7.6242411529219600e-07 0.0000000000000000e+00 0.0000000000000000e+00  -3.9278710502475436e-06 0.0000000000000000e+00 0.0000000000000000e+00  -1.2542003937846110e-05 0.0000000000000000e+00 0.0000000000000000e+00  -2.9299153895093357e-05 0.0000000000000000e+00 0.0000000000000000e+00  -5.6845854036450658e-05 0.0000000000000000e+00 0.0000000000000000e+00  -9.7785054954351724e-05 0.0000000000000000e+00 0.0000000000000000e+00  -1.5466103581997644e-04 0.0000000000000000e+00 0.0000000000000000e+00  -2.2994382235821267e-04 0.0000000000000000e+00 0.0000000000000000e+00  -3.2601319003451129e-04 0.0000000000000000e+00 0.0000000000000000e+00  -4.4514164379192165e-04 0.0000000000000000e+00 0.0000000000000000e+00  -5.8947593967731806e-04 0.0000000000000000e+00 0.0000000000000000e+00  -7.6101672999831580e-04 0.0000000000000000e+00 0.0000000000000000e+00  -9.6159579187675621e-04 0.0000000000000000e+00 0.0000000000000000e+00  -1.1928500373112930e-03 0.0000000000000000e+00 0.0000000000000000e+00  -1.4561910445246499e-03 0.0000000000000000e+00 0.0000000000000000e+00  -1.7527680927913233e-03 0.0000000000000000e+00 0.0000000000000000e+00  -2.0834214671267689e-03 0.0000000000000000e+00 0.0000000000000000e+00  -2.4486208944344149e-03 0.0000000000000000e+00 0.0000000000000000e+00  -2.8483810522417583e-03 0.0000000000000000e+00 0.0000000000000000e+00  -3.2821417100935505e-03 0.0000000000000000e+00 0.0000000000000000e+00  -3.7485936387726105e-03 0.0000000000000000e+00 0.0000000000000000e+00  -4.2454222291225287e-03 0.0000000000000000e+00 0.0000000000000000e+00  -4.7689279587879475e-03 0.0000000000000000e+00 0.0000000000000000e+00  -5.3134655500001633e-03 0.0000000000000000e+00 0.0000000000000000e+00  -5.8706210983940407e-03 0.0000000000000000e+00 0.0000000000000000e+00  -6.4280181831203121e-03 0.0000000000000000e+00 0.0000000000000000e+00  -6.9676101877602795e-03 0.0000000000000000e+00 0.0000000000000000e+00  -7.4632778974116848e-03 0.0000000000000000e+00 0.0000000000000000e+00  -7.8775110789554032e-03 0.0000000000000000e+00 0.0000000000000000e+00  -8.1569131400737183e-03 0.0000000000000000e+00 0.0000000000000000e+00  -8.2262316525625254e-03 0.0000000000000000e+00 0.0000000000000000e+00  -7.9805842957994377e-03 0.0000000000000000e+00 0.0000000000000000e+00  -7.2755126428249127e-03 0.0000000000000000e+00 0.0000000000000000e+00  -5.9144356375807512e-03 0.0000000000000000e+00 0.0000000000000000e+00  -3.6329505546631420e-03 0.0000000000000000e+00 0.0000000000000000e+00  -7.9169003281283069e-05 0.0000000000000000e+00 0.0000000000000000e+00  5.2112520835396123e-03 0.0000000000000000e+00 0.0000000000000000e+00  1.2847799378212208e-02 0.0000000000000000e+00 0.0000000000000000e+00  2.3630541627211128e-02 0.0000000000000000e+00 0.0000000000000000e+00  3.8625059037552319e-02 0.0000000000000000e+00 0.0000000000000000e+00  0.0000000000000000e+00 -7.6242411438506320e-07 0.0000000000000000e+00  9.3254300749878712e-07 9.3254300787758851e-07 0.0000000000000000e+00  -9.6864047020851069e-07 5.1648158604948015e-06 0.0000000000000000e+00  -8.2635523895940174e-06 1.1983680812999347e-05 0.0000000000000000e+00  -2.3672394968479756e-05 2.1441798960445021e-05 0.0000000000000000e+00  -4.9862828784698020e-05 3.3528011636743383e-05 0.0000000000000000e+00  -8.9445602537553958e-05 4.8196971003259031e-05 0.0000000000000000e+00  -1.4496837039248872e-04 6.5383171710158659e-05 0.0000000000000000e+00  -2.1890359165428871e-04 8.5004913721035697e-05 0.0000000000000000e+00  -3.1363367156825159e-04 1.0696465623343905e-04 0.0000000000000000e+00  -4.3143432712764319e-04 1.3114821469559606e-04 0.0000000000000000e+00  -5.7445625719091157e-04 1.5742358811120325e-04 0.0000000000000000e+00  -7.4470485389875824e-04 1.8563967158451077e-04 0.0000000000000000e+00  -9.4401746180000298e-04 2.1562495538086958e-04 0.0000000000000000e+00  -1.1740373957530978e-03 2.4718627211010771e-04 0.0000000000000000e+00  -1.4361834596049660e-03 2.8010764710594276e-04 0.0000000000000000e+00  -1.7316129461431595e-03 3.1414931024243667e-04 0.0000000000000000e+00  -2.0611748814773788e-03 3.4904693372263073e-04 0.0000000000000000e+00  -2.4253483714008492e-03 3.8451116768501901e-04 0.0000000000000000e+00  -2.8241579860229567e-03 4.2022755390503985e-04 0.0000000000000000e+00  -3.2570537369023015e-03 4.5585690750918372e-04 0.0000000000000000e+00  -3.7227367749490601e-03 4.9103626799722265e-04 0.0000000000000000e+00  -4.2189027429625266e-03 5.2538053425443853e-04 0.0000000000000000e+00  -4.7418619127835770e-03 5.5848491302371473e-04 0.0000000000000000e+00  -5.2859779430939908e-03 5.8992832365587563e-04 0.0000000000000000e+00  -5.8428445344264474e-03 6.1927790809911273e-04 0.0000000000000000e+00  -6.4000909942493068e-03 6.4609478280385456e-04 0.0000000000000000e+00  -6.9396739502239780e-03 6.6994112221607544e-04 0.0000000000000000e+00  -7.4354742833851713e-03 6.9038855930238664e-04 0.0000000000000000e+00  -7.8499779662355058e-03 7.0702770552377042e-04 0.0000000000000000e+00  -8.1297797934270239e-03 7.1947831730017069e-04 0.0000000000000000e+00  -8.1996124912909647e-03 7.2739928028929502e-04 0.0000000000000000e+00  -7.9545701043730876e-03 7.3049720182288759e-04 0.0000000000000000e+00  -7.2501568333532378e-03 7.2853210530316858e-04 0.0000000000000000e+00  -5.8897310786114815e-03 7.2131864914191945e-04 0.0000000000000000e+00  -3.6087895073964584e-03 7.0872144769761882e-04 0.0000000000000000e+00  -5.5276456786052448e-05 6.9064241722358337e-04 0.0000000000000000e+00  5.2354109979234082e-03 6.6699005419765050e-04 0.0000000000000000e+00  1.2873029313266596e-02 6.3757132689936746e-04 0.0000000000000000e+00  2.3656781222261850e-02 6.0159552300469014e-04 0.0000000000000000e+00  3.8637595019974623e-02 5.5536153080839852e-04 0.0000000000000000e+00  0.0000000000000000e+00 -3.9278710506385205e-06 0.0000000000000000e+00  5.1648158609340228e-06 -9.6864047021648911e-07 0.0000000000000000e+00  7.3690503515337217e-06 7.3690503489215873e-06 0.0000000000000000e+00  4.1402093289023507e-06 2.1034167728676118e-05 0.0000000000000000e+00  -7.2033719526068672e-06 4.0001786681693385e-05 0.0000000000000000e+00  -2.9324325624886259e-05 6.4214609445440408e-05 0.0000000000000000e+00  -6.4838034783020328e-05 9.3580892351088308e-05 0.0000000000000000e+00  -1.1629851784040169e-04 1.2797513794408766e-04 0.0000000000000000e+00  -1.8618530771246866e-04 1.6723901825351514e-04 0.0000000000000000e+00  -2.7688899629720227e-04 2.1118122301351459e-04 0.0000000000000000e+00  -3.9069509146854941e-04 2.5957623430448903e-04 0.0000000000000000e+00  -5.2976604971867165e-04 3.1216239413445776e-04 0.0000000000000000e+00  -6.9612122538887441e-04 3.6863959258602146e-04 0.0000000000000000e+00  -8.9161427020044773e-04 4.2866681008518743e-04 0.0000000000000000e+00  -1.1179072106659079e-03 4.9185968597924051e-04 0.0000000000000000e+00  -1.3764399503627190e-03 5.5778825841172001e-04 0.0000000000000000e+00  -1.6683931745532343e-03 6.2597501433279490e-04 0.0000000000000000e+00  -1.9946414124685603e-03 6.9589339370227895e-04 0.0000000000000000e+00  -2.3556911030998169e-03 7.6696690292774679e-04 0.0000000000000000e+00  -2.7515955859630089e-03 8.3856900684768274e-04 0.0000000000000000e+00  -3.1818345527083280e-03 9.1002398485090909e-04 0.0000000000000000e+00  -3.6451390655067345e-03 9.8060895494396006e-04 0.0000000000000000e+00  -4.1392340499593391e-03 1.0495572881424210e-03 0.0000000000000000e+00  -4.6604573639694117e-03 1.1160636530711946e-03 0.0000000000000000e+00  -5.2031972509134355e-03 1.1792909415005107e-03 0.0000000000000000e+00  -5.7590674338522585e-03 1.2383793207584061e-03 0.0000000000000000e+00  -6.3157108614953859e-03 1.2924576229071687e-03 0.0000000000000000e+00  -6.8550893715461818e-03 1.3406571920663523e-03 0.0000000000000000e+00  -7.3510784085580308e-03 1.3821281428079827e-03 0.0000000000000000e+00  -7.7661455812718608e-03 1.4160577082128446e-03 0.0000000000000000e+00  -8.0468521513449992e-03 1.4416899588438055e-03 0.0000000000000000e+00  -8.1178799804555446e-03 1.4583456543897147e-03 0.0000000000000000e+00  -7.8742527032645837e-03 1.4654403647078838e-03 0.0000000000000000e+00  -7.1713818946650991e-03 1.4624982394680294e-03 0.0000000000000000e+00  -5.8125073819101612e-03 1.4491576247443723e-03 0.0000000000000000e+00  -3.5329766069009927e-03 1.4251618502631952e-03 0.0000000000000000e+00  1.9446892162615005e-05 1.3903195300716553e-03 0.0000000000000000e+00  5.3095506739695127e-03 1.3443899862287142e-03 0.0000000000000000e+00  1.2947121849995177e-02 1.2867634604427972e-03 0.0000000000000000e+00  2.3730600514539749e-02 1.2155839714070038e-03 0.0000000000000000e+00  3.8707798859861010e-02 1.1255998587378214e-03 0.0000000000000000e+00  0.0000000000000000e+00 -1.2542003937541109e-05 0.0000000000000000e+00  1.1983680813465179e-05 -8.2635523891481663e-06 0.0000000000000000e+00  2.1034167726304829e-05 4.1402093267156064e-06 0.0000000000000000e+00  2.4605320974812131e-05 2.4605320975616629e-05 0.0000000000000000e+00  2.0047656242656919e-05 5.3059504521425541e-05 0.0000000000000000e+00  4.7066054746265080e-06 8.9398012910810388e-05 0.0000000000000000e+00  -2.4033947074734400e-05 1.3347420596997788e-04 0.0000000000000000e+00  -6.8733680322615918e-05 1.8509781663585514e-04 0.0000000000000000e+00  -1.3188134887243274e-04 2.4403321896739353e-04 0.0000000000000000e+00  -2.1587996197108204e-04 3.0999704419652476e-04 0.0000000000000000e+00  -3.2303072551867040e-04 3.8265526368018188e-04 0.0000000000000000e+00  -4.5551530599101077e-04 4.6161985484011707e-04 0.0000000000000000e+00  -6.1537601348293769e-04 5.4644518571874225e-04 0.0000000000000000e+00  -8.0449337339899400e-04 6.3662428056799757e-04 0.0000000000000000e+00  -1.0245602831575147e-03 7.3158514633431292e-04 0.0000000000000000e+00  -1.2770514811133321e-03 8.3068735269979362e-04 0.0000000000000000e+00  -1.5631862876773551e-03 9.3321907151667377e-04 0.0000000000000000e+00  -1.8838813551853946e-03 1.0383947979821237e-03 0.0000000000000000e+00  -2.2396882509267764e-03 1.1453539949946071e-03 0.0000000000000000e+00  -2.6307077701274066e-03 1.2531609234629280e-03 0.0000000000000000e+00  -3.0564684863950238e-03 1.3608059435911877e-03 0.0000000000000000e+00  -3.5157506139859404e-03 1.4672085939570301e-03 0.0000000000000000e+00  -4.0063270554558826e-03 1.5712227743033148e-03 0.0000000000000000e+00  -4.5245807028369001e-03 1.6716443703417101e-03 0.0000000000000000e+00  -5.0649397739660077e-03 1.7672216571607757e-03 0.0000000000000000e+00  -5.6190504309461447e-03 1.8566687906095228e-03 0.0000000000000000e+00  -6.1745777128815443e-03 1.9386826248568615e-03 0.0000000000000000e+00  -6.7134921183820175e-03 2.0119629553039006e-03 0.0000000000000000e+00  -7.2096611085897761e-03 2.0752360482528417e-03 0.0000000000000000e+00  -7.6255245185912991e-03 2.1272809489355808e-03 0.0000000000000000e+00  -7.9075932298356966e-03 2.1669575224001047e-03 0.0000000000000000e+00  -7.9804739188808604e-03 2.1932344358417091e-03 0.0000000000000000e+00  -7.7390889483437810e-03 2.2052142535970106e-03 0.0000000000000000e+00  -7.0387225839034402e-03 2.2021512541996391e-03 0.0000000000000000e+00  -5.6824637766390296e-03 2.1834548242008842e-03 0.0000000000000000e+00  -3.4054940494640073e-03 2.1486655864391292e-03 0.0000000000000000e+00  1.4457791211112064e-04 2.0973787767413570e-03 0.0000000000000000e+00  5.4326068557147252e-03 2.0290624332951960e-03 0.0000000000000000e+00  1.3068151145390151e-02 1.9426702461748286e-03 0.0000000000000000e+00  2.3848643253669092e-02 1.8359095695024271e-03 0.0000000000000000e+00  3.8819458567265618e-02 1.7042130787886425e-03 0.0000000000000000e+00  0.0000000000000000e+00 -2.9299153894097632e-05 0.0000000000000000e+00  2.1441798960181302e-05 -2.3672394968506495e-05 0.0000000000000000e+00  4.0001786681202052e-05 -7.2033719539568624e-06 0.0000000000000000e+00  5.3059504520378635e-05 2.0047656239674556e-05 0.0000000000000000e+00  5.7975625721227876e-05 5.7975625722499029e-05 0.0000000000000000e+00  5.2101279890518390e-05 1.0643371189754119e-04 0.0000000000000000e+00  3.2818660203361737e-05 1.6522401568023337e-04 0.0000000000000000e+00  -2.4388085592095205e-06 2.3409379096585162e-04 0.0000000000000000e+00  -5.6171337111860164e-05 3.1273217602927257e-04 0.0000000000000000e+00  -1.3079799819642389e-04 4.0076639192404085e-04 0.0000000000000000e+00  -2.2864091034147970e-04 4.9775734342503302e-04 0.0000000000000000e+00  -3.5190778903107988e-04 6.0319477104287293e-04 0.0000000000000000e+00  -5.0267239407455198e-04 7.1649213121137087e-04 0.0000000000000000e+00  -6.8285229461133789e-04 8.3698139127785049e-04 0.0000000000000000e+00  -8.9418310926086988e-04 9.6390794532919542e-04 0.0000000000000000e+00  -1.1381879147595749e-03 1.0964258832377935e-03 0.0000000000000000e+00  -1.4161397513155697e-03 1.2335938751282488e-03 0.0000000000000000e+00  -1.7290139294271415e-03 1.3743719646304798e-03 0.0000000000000000e+00  -2.0774249295474785e-03 1.5176195959149933e-03 0.0000000000000000e+00  -2.4615397563771328e-03 1.6620952305028108e-03 0.0000000000000000e+00  -2.8809552184929981e-03 1.8064579391763745e-03 0.0000000000000000e+00  -3.3345201700386664e-03 1.9492713789997964e-03 0.0000000000000000e+00  -3.8200745521757462e-03 2.0890105825741266e-03 0.0000000000000000e+00  -4.3340642732200346e-03 2.2240719895545067e-03 0.0000000000000000e+00  -4.8709736951259948e-03 2.3527871300925898e-03 0.0000000000000000e+00  -5.4224949873606203e-03 2.4734403122999562e-03 0.0000000000000000e+00  -5.9763254398566045e-03 2.5842905505350489e-03 0.0000000000000000e+00  -6.5144501963212377e-03 2.6835977717472861e-03 0.0000000000000000e+00  -7.0107298912586262e-03 2.7696530189996612e-03 0.0000000000000000e+00  -7.4275724942422881e-03 2.8408118930944941e-03 0.0000000000000000e+00  -7.7114291437554621e-03 2.8955297831714808e-03 0.0000000000000000e+00  -7.7868173488753242e-03 2.9323964606501936e-03 0.0000000000000000e+00  -7.5485414003454180e-03 2.9501662146569018e-03 0.0000000000000000e+00  -6.8517424374261804e-03 2.9477776157712647e-03 0.0000000000000000e+00  -5.4993509169233073e-03 2.9243536422834684e-03 0.0000000000000000e+00  -3.2263955268415352e-03 2.8791672662037073e-03 0.0000000000000000e+00  3.1961806704346759e-04 2.8115483906957575e-03 0.0000000000000000e+00  5.6035087186818858e-03 2.7206956512660896e-03 0.0000000000000000e+00  1.3234500241355453e-02 2.6053507073789004e-03 0.0000000000000000e+00  2.4009196896315803e-02 2.4633327741201100e-03 0.0000000000000000e+00  3.8971834647227845e-02 2.2911158448112316e-03 0.0000000000000000e+00  0.0000000000000000e+00 -5.6845854035529385e-05 0.0000000000000000e+00  3.3528011637226327e-05 -4.9862828783648452e-05 0.0000000000000000e+00  6.4214609443555753e-05 -2.9324325625327421e-05 0.0000000000000000e+00  8.9398012908700639e-05 4.7066054722672206e-06 0.0000000000000000e+00  1.0643371189694400e-04 5.2101279889323559e-05 0.0000000000000000e+00  1.1267565828060361e-04 1.1267565827975985e-04 0.0000000000000000e+00  1.0550345286660073e-04 1.8618474187270063e-04 0.0000000000000000e+00  8.2342325426887591e-05 2.7231759030716583e-04 0.0000000000000000e+00  4.0678365243254789e-05 3.7069267693571174e-04 0.0000000000000000e+00  -2.1926981072825314e-05 4.8085272973147754e-04 0.0000000000000000e+00  -1.0782153113718752e-04 6.0225892595646043e-04 0.0000000000000000e+00  -2.1924536548026459e-04 7.3428455718503734e-04 0.0000000000000000e+00  -3.5831165646801118e-04 8.7620835548449336e-04 0.0000000000000000e+00  -5.2698470361081163e-04 1.0272077046701372e-03 0.0000000000000000e+00  -7.2705429539397727e-04 1.1863519894354316e-03 0.0000000000000000e+00  -9.6010505349973941e-04 1.3525963689489814e-03 0.0000000000000000e+00  -1.2274786486010795e-03 1.5247763001304490e-03 0.0000000000000000e+00  -1.5302255510742779e-03 1.7016031775284888e-03 0.0000000000000000e+00  -1.8690410649366714e-03 1.8816614993022714e-03 0.0000000000000000e+00  -2.2441774622586562e-03 2.0634080098311481e-03 0.0000000000000000e+00  -2.6553196445981316e-03 2.2451733061775638e-03 0.0000000000000000e+00  -3.1014053264594053e-03 2.4251664237918353e-03 0.0000000000000000e+00  -3.5803615438391757e-03 2.6014829315043450e-03 0.0000000000000000e+00  -4.0887165062399745e-03 2.7721170582194563e-03 0.0000000000000000e+00  -4.6210285641338431e-03 2.9349783328845649e-03 0.0000000000000000e+00  -5.1690515973342351e-03 3.0879131287941670e-03 0.0000000000000000e+00  -5.7205280206653079e-03 3.2287313411927783e-03 0.0000000000000000e+00  -6.2574670564577327e-03 3.3552381650321914e-03 0.0000000000000000e+00  -6.7537280540935453e-03 3.4652705419815173e-03 0.0000000000000000e+00  -7.1716885901641639e-03 3.5567372678295163e-03 0.0000000000000000e+00  -7.4577377207076974e-03 3.6276609384409881e-03 0.0000000000000000e+00  -7.5362985560614350e-03 3.6762187898673870e-03 0.0000000000000000e+00  -7.3020510985160863e-03 3.7007779485290983e-03 0.0000000000000000e+00  -6.6099894379044889e-03 3.6999184879904640e-03 0.0000000000000000e+00  -5.2628887311123211e-03 3.6724347812338168e-03 0.0000000000000000e+00  -2.9956403969452253e-03 3.6173018341324309e-03 0.0000000000000000e+00  5.4432486930150372e-04 3.5335891823523222e-03 0.0000000000000000e+00  5.8217719125761586e-03 3.4203034322669314e-03 0.0000000000000000e+00  1.3445666873659669e-02 3.2761497260890026e-03 0.0000000000000000e+00  2.4212157944022011e-02 3.0992363125943887e-03 0.0000000000000000e+00  3.9165213951936395e-02 2.8868007454609344e-03 0.0000000000000000e+00  0.0000000000000000e+00 -9.7785054955453491e-05 0.0000000000000000e+00  4.8196971004037020e-05 -8.9445602536432622e-05 0.0000000000000000e+00  9.3580892349011085e-05 -6.4838034782919537e-05 0.0000000000000000e+00  1.3347420596777196e-04 -2.4033947075868228e-05 0.0000000000000000e+00  1.6522401567816873e-04 3.2818660201367428e-05 0.0000000000000000e+00  1.8618474187011714e-04 1.0550345286718673e-04 0.0000000000000000e+00  1.9373300764517025e-04 1.9373300764761759e-04 0.0000000000000000e+00  1.8528521282475650e-04 2.9714335596548407e-04 0.0000000000000000e+00  1.5831218051323974e-04 4.1528812601157106e-04 0.0000000000000000e+00  1.1035311142258214e-04 5.4763201772122297e-04 0.0000000000000000e+00  3.9030346130132779e-05 6.9354353684024286e-04 0.0000000000000000e+00  -5.7934236009015653e-05 8.5228709980609185e-04 0.0000000000000000e+00  -1.8270056285169629e-04 1.0230147091435241e-03 0.0000000000000000e+00  -3.3728878390587667e-04 1.2047574498225636e-03 0.0000000000000000e+00  -5.2355382808555624e-04 1.3964171001952209e-03 0.0000000000000000e+00  -7.4315471572577627e-04 1.5967581971060424e-03 0.0000000000000000e+00  -9.9751646663708677e-04 1.8044009445169200e-03 0.0000000000000000e+00  -1.2877812170925833e-03 2.0178154081403636e-03 0.0000000000000000e+00  -1.6147432412444869e-03 2.2353174925328814e-03 0.0000000000000000e+00  -1.9787596407802505e-03 2.4550672487751307e-03 0.0000000000000000e+00  -2.3796240777757640e-03 2.6750701062354843e-03 0.0000000000000000e+00  -2.8163845002902102e-03 2.8931816551472670e-03 0.0000000000000000e+00  -3.2870766307638620e-03 3.1071166207965943e-03 0.0000000000000000e+00  -3.7883322240160949e-03 3.3144626541854482e-03 0.0000000000000000e+00  -4.3148038899067940e-03 3.5126995052105286e-03 0.0000000000000000e+00  -4.8583258611140708e-03 3.6992240240622735e-03 0.0000000000000000e+00  -5.4067020510238520e-03 3.8713812321045722e-03 0.0000000000000000e+00  -5.9419792984586649e-03 4.0265013859422469e-03 0.0000000000000000e+00  -6.4380259516304255e-03 4.1619424936443165e-03 0.0000000000000000e+00  -6.8571960469113813e-03 4.2751370897861959e-03 0.0000000000000000e+00  -7.1458201504439435e-03 4.3636411911342132e-03 0.0000000000000000e+00  -7.2282279333614370e-03 4.4251821894993448e-03 0.0000000000000000e+00  -6.9989745735330525e-03 4.4577009486996798e-03 0.0000000000000000e+00  -6.3129065583899455e-03 4.4593815445520537e-03 0.0000000000000000e+00  -4.9726441613505267e-03 4.4286600049084869e-03 0.00000000