<?xml version="1.0"?>
<VTKFile type="UnstructuredGrid"  version="0.1"  >
<UnstructuredGrid>
<Piece  NumberOfPoints="1681" NumberOfCells="3200">
<Points>
<DataArray  type="Float64"  NumberOfComponents="3"  format="ascii">0 0 0  0.5 0 0  1 0 0  1.5 0 0  2 0 0  2.5 0 0  3 0 0  3.5 0 0  4 0 0  4.5 0 0  5 0 0  5.5 0 0  6 0 0  6.5 0 0  7 0 0  7.5 0 0  8 0 0  8.5 0 0  9 0 0  9.5 0 0  10 0 0  10.5 0 0  11 0 0  11.5 0 0  12 0 0  12.5 0 0  13 0 0  13.5 0 0  14 0 0  14.5 0 0  15 0 0  15.5 0 0  16 0 0  16.5 0 0  17 0 0  17.5 0 0  18 0 0  18.5 0 0  19 0 0  19.5 0 0  20 0 0  0 0.5 0  0.5 0.5 0  1 0.5 0  1.5 0.5 0  2 0.5 0  2.5 0.5 0  3 0.5 0  3.5 0.5 0  4 0.5 0  4.5 0.5 0  5 0.5 0  5.5 0.5 0  6 0.5 0  6.5 0.5 0  7 0.5 0  7.5 0.5 0  8 0.5 0  8.5 0.5 0  9 0.5 0  9.5 0.5 0  10 0.5 0  10.5 0.5 0  11 0.5 0  11.5 0.5 0  12 0.5 0  12.5 0.5 0  13 0.5 0  13.5 0.5 0  14 0.5 0  14.5 0.5 0  15 0.5 0  15.5 0.5 0  16 0.5 0  16.5 0.5 0  17 0.5 0  17.5 0.5 0  18 0.5 0  18.5 0.5 0  19 0.5 0  19.5 0.5 0  20 0.5 0  0 1 0  0.5 1 0  1 1 0  1.5 1 0  2 1 0  2.5 1 0  3 1 0  3.5 1 0  4 1 0  4.5 1 0  5 1 0  5.5 1 0  6 1 0  6.5 1 0  7 1 0  7.5 1 0  8 1 0  8.5 1 0  9 1 0  9.5 1 0  10 1 0  10.5 1 0  11 1 0  11.5 1 0  12 1 0  12.5 1 0  13 1 0  13.5 1 0  14 1 0  14.5 1 0  15 1 0  15.5 1 0  16 1 0  16.5 1 0  17 1 0  17.5 1 0  18 1 0  18.5 1 0  19 1 0  19.5 1 0  20 1 0  0 1.5 0  0.5 1.5 0  1 1.5 0  1.5 1.5 0  2 1.5 0  2.5 1.5 0  3 1.5 0  3.5 1.5 0  4 1.5 0  4.5 1.5 0  5 1.5 0  5.5 1.5 0  6 1.5 0  6.5 1.5 0  7 1.5 0  7.5 1.5 0  8 1.5 0  8.5 1.5 0  9 1.5 0  9.5 1.5 0  10 1.5 0  10.5 1.5 0  11 1.5 0  11.5 1.5 0  12 1.5 0  12.5 1.5 0  13 1.5 0  13.5 1.5 0  14 1.5 0  14.5 1.5 0  15 1.5 0  15.5 1.5 0  16 1.5 0  16.5 1.5 0  17 1.5 0  17.5 1.5 0  18 1.5 0  18.5 1.5 0  19 1.5 0  19.5 1.5 0  20 1.5 0  0 2 0  0.5 2 0  1 2 0  1.5 2 0  2 2 0  2.5 2 0  3 2 0  3.5 2 0  4 2 0  4.5 2 0  5 2 0  5.5 2 0  6 2 0  6.5 2 0  7 2 0  7.5 2 0  8 2 0  8.5 2 0  9 2 0  9.5 2 0  10 2 0  10.5 2 0  11 2 0  11.5 2 0  12 2 0  12.5 2 0  13 2 0  13.5 2 0  14 2 0  14.5 2 0  15 2 0  15.5 2 0  16 2 0  16.5 2 0  17 2 0  17.5 2 0  18 2 0  18.5 2 0  19 2 0  19.5 2 0  20 2 0  0 2.5 0  0.5 2.5 0  1 2.5 0  1.5 2.5 0  2 2.5 0  2.5 2.5 0  3 2.5 0  3.5 2.5 0  4 2.5 0  4.5 2.5 0  5 2.5 0  5.5 2.5 0  6 2.5 0  6.5 2.5 0  7 2.5 0  7.5 2.5 0  8 2.5 0  8.5 2.5 0  9 2.5 0  9.5 2.5 0  10 2.5 0  10.5 2.5 0  11 2.5 0  11.5 2.5 0  12 2.5 0  12.5 2.5 0  13 2.5 0  13.5 2.5 0  14 2.5 0  14.5 2.5 0  15 2.5 0  15.5 2.5 0  16 2.5 0  16.5 2.5 0  17 2.5 0  17.5 2.5 0  18 2.5 0  18.5 2.5 0  19 2.5 0  19.5 2.5 0  20 2.5 0  0 3 0  0.5 3 0  1 3 0  1.5 3 0  2 3 0  2.5 3 0  3 3 0  3.5 3 0  4 3 0  4.5 3 0  5 3 0  5.5 3 0  6 3 0  6.5 3 0  7 3 0  7.5 3 0  8 3 0  8.5 3 0  9 3 0  9.5 3 0  10 3 0  10.5 3 0  11 3 0  11.5 3 0  12 3 0  12.5 3 0  13 3 0  13.5 3 0  14 3 0  14.5 3 0  15 3 0  15.5 3 0  16 3 0  16.5 3 0  17 3 0  17.5 3 0  18 3 0  18.5 3 0  19 3 0  19.5 3 0  20 3 0  0 3.5 0  0.5 3.5 0  1 3.5 0  1.5 3.5 0  2 3.5 0  2.5 3.5 0  3 3.5 0  3.5 3.5 0  4 3.5 0  4.5 3.5 0  5 3.5 0  5.5 3.5 0  6 3.5 0  6.5 3.5 0  7 3.5 0  7.5 3.5 0  8 3.5 0  8.5 3.5 0  9 3.5 0  9.5 3.5 0  10 3.5 0  10.5 3.5 0  11 3.5 0  11.5 3.5 0  12 3.5 0  12.5 3.5 0  13 3.5 0  13.5 3.5 0  14 3.5 0  14.5 3.5 0  15 3.5 0  15.5 3.5 0  16 3.5 0  16.5 3.5 0  17 3.5 0  17.5 3.5 0  18 3.5 0  18.5 3.5 0  19 3.5 0  19.5 3.5 0  20 3.5 0  0 4 0  0.5 4 0  1 4 0  1.5 4 0  2 4 0  2.5 4 0  3 4 0  3.5 4 0  4 4 0  4.5 4 0  5 4 0  5.5 4 0  6 4 0  6.5 4 0  7 4 0  7.5 4 0  8 4 0  8.5 4 0  9 4 0  9.5 4 0  10 4 0  10.5 4 0  11 4 0  11.5 4 0  12 4 0  12.5 4 0  13 4 0  13.5 4 0  14 4 0  14.5 4 0  15 4 0  15.5 4 0  16 4 0  16.5 4 0  17 4 0  17.5 4 0  18 4 0  18.5 4 0  19 4 0  19.5 4 0  20 4 0  0 4.5 0  0.5 4.5 0  1 4.5 0  1.5 4.5 0  2 4.5 0  2.5 4.5 0  3 4.5 0  3.5 4.5 0  4 4.5 0  4.5 4.5 0  5 4.5 0  5.5 4.5 0  6 4.5 0  6.5 4.5 0  7 4.5 0  7.5 4.5 0  8 4.5 0  8.5 4.5 0  9 4.5 0  9.5 4.5 0  10 4.5 0  10.5 4.5 0  11 4.5 0  11.5 4.5 0  12 4.5 0  12.5 4.5 0  13 4.5 0  13.5 4.5 0  14 4.5 0  14.5 4.5 0  15 4.5 0  15.5 4.5 0  16 4.5 0  16.5 4.5 0  17 4.5 0  17.5 4.5 0  18 4.5 0  18.5 4.5 0  19 4.5 0  19.5 4.5 0  20 4.5 0  0 5 0  0.5 5 0  1 5 0  1.5 5 0  2 5 0  2.5 5 0  3 5 0  3.5 5 0  4 5 0  4.5 5 0  5 5 0  5.5 5 0  6 5 0  6.5 5 0  7 5 0  7.5 5 0  8 5 0  8.5 5 0  9 5 0  9.5 5 0  10 5 0  10.5 5 0  11 5 0  11.5 5 0  12 5 0  12.5 5 0  13 5 0  13.5 5 0  14 5 0  14.5 5 0  15 5 0  15.5 5 0  16 5 0  16.5 5 0  17 5 0  17.5 5 0  18 5 0  18.5 5 0  19 5 0  19.5 5 0  20 5 0  0 5.5 0  0.5 5.5 0  1 5.5 0  1.5 5.5 0  2 5.5 0  2.5 5.5 0  3 5.5 0  3.5 5.5 0  4 5.5 0  4.5 5.5 0  5 5.5 0  5.5 5.5 0  6 5.5 0  6.5 5.5 0  7 5.5 0  7.5 5.5 0  8 5.5 0  8.5 5.5 0  9 5.5 0  9.5 5.5 0  10 5.5 0  10.5 5.5 0  11 5.5 0  11.5 5.5 0  12 5.5 0  12.5 5.5 0  13 5.5 0  13.5 5.5 0  14 5.5 0  14.5 5.5 0  15 5.5 0  15.5 5.5 0  16 5.5 0  16.5 5.5 0  17 5.5 0  17.5 5.5 0  18 5.5 0  18.5 5.5 0  19 5.5 0  19.5 5.5 0  20 5.5 0  0 6 0  0.5 6 0  1 6 0  1.5 6 0  2 6 0  2.5 6 0  3 6 0  3.5 6 0  4 6 0  4.5 6 0  5 6 0  5.5 6 0  6 6 0  6.5 6 0  7 6 0  7.5 6 0  8 6 0  8.5 6 0  9 6 0  9.5 6 0  10 6 0  10.5 6 0  11 6 0  11.5 6 0  12 6 0  12.5 6 0  13 6 0  13.5 6 0  14 6 0  14.5 6 0  15 6 0  15.5 6 0  16 6 0  16.5 6 0  17 6 0  17.5 6 0  18 6 0  18.5 6 0  19 6 0  19.5 6 0  20 6 0  0 6.5 0  0.5 6.5 0  1 6.5 0  1.5 6.5 0  2 6.5 0  2.5 6.5 0  3 6.5 0  3.5 6.5 0  4 6.5 0  4.5 6.5 0  5 6.5 0  5.5 6.5 0  6 6.5 0  6.5 6.5 0  7 6.5 0  7.5 6.5 0  8 6.5 0  8.5 6.5 0  9 6.5 0  9.5 6.5 0  10 6.5 0  10.5 6.5 0  11 6.5 0  11.5 6.5 0  12 6.5 0  12.5 6.5 0  13 6.5 0  13.5 6.5 0  14 6.5 0  14.5 6.5 0  15 6.5 0  15.5 6.5 0  16 6.5 0  16.5 6.5 0  17 6.5 0  17.5 6.5 0  18 6.5 0  18.5 6.5 0  19 6.5 0  19.5 6.5 0  20 6.5 0  0 7 0  0.5 7 0  1 7 0  1.5 7 0  2 7 0  2.5 7 0  3 7 0  3.5 7 0  4 7 0  4.5 7 0  5 7 0  5.5 7 0  6 7 0  6.5 7 0  7 7 0  7.5 7 0  8 7 0  8.5 7 0  9 7 0  9.5 7 0  10 7 0  10.5 7 0  11 7 0  11.5 7 0  12 7 0  12.5 7 0  13 7 0  13.5 7 0  14 7 0  14.5 7 0  15 7 0  15.5 7 0  16 7 0  16.5 7 0  17 7 0  17.5 7 0  18 7 0  18.5 7 0  19 7 0  19.5 7 0  20 7 0  0 7.5 0  0.5 7.5 0  1 7.5 0  1.5 7.5 0  2 7.5 0  2.5 7.5 0  3 7.5 0  3.5 7.5 0  4 7.5 0  4.5 7.5 0  5 7.5 0  5.5 7.5 0  6 7.5 0  6.5 7.5 0  7 7.5 0  7.5 7.5 0  8 7.5 0  8.5 7.5 0  9 7.5 0  9.5 7.5 0  10 7.5 0  10.5 7.5 0  11 7.5 0  11.5 7.5 0  12 7.5 0  12.5 7.5 0  13 7.5 0  13.5 7.5 0  14 7.5 0  14.5 7.5 0  15 7.5 0  15.5 7.5 0  16 7.5 0  16.5 7.5 0  17 7.5 0  17.5 7.5 0  18 7.5 0  18.5 7.5 0  19 7.5 0  19.5 7.5 0  20 7.5 0  0 8 0  0.5 8 0  1 8 0  1.5 8 0  2 8 0  2.5 8 0  3 8 0  3.5 8 0  4 8 0  4.5 8 0  5 8 0  5.5 8 0  6 8 0  6.5 8 0  7 8 0  7.5 8 0  8 8 0  8.5 8 0  9 8 0  9.5 8 0  10 8 0  10.5 8 0  11 8 0  11.5 8 0  12 8 0  12.5 8 0  13 8 0  13.5 8 0  14 8 0  14.5 8 0  15 8 0  15.5 8 0  16 8 0  16.5 8 0  17 8 0  17.5 8 0  18 8 0  18.5 8 0  19 8 0  19.5 8 0  20 8 0  0 8.5 0  0.5 8.5 0  1 8.5 0  1.5 8.5 0  2 8.5 0  2.5 8.5 0  3 8.5 0  3.5 8.5 0  4 8.5 0  4.5 8.5 0  5 8.5 0  5.5 8.5 0  6 8.5 0  6.5 8.5 0  7 8.5 0  7.5 8.5 0  8 8.5 0  8.5 8.5 0  9 8.5 0  9.5 8.5 0  10 8.5 0  10.5 8.5 0  11 8.5 0  11.5 8.5 0  12 8.5 0  12.5 8.5 0  13 8.5 0  13.5 8.5 0  14 8.5 0  14.5 8.5 0  15 8.5 0  15.5 8.5 0  16 8.5 0  16.5 8.5 0  17 8.5 0  17.5 8.5 0  18 8.5 0  18.5 8.5 0  19 8.5 0  19.5 8.5 0  20 8.5 0  0 9 0  0.5 9 0  1 9 0  1.5 9 0  2 9 0  2.5 9 0  3 9 0  3.5 9 0  4 9 0  4.5 9 0  5 9 0  5.5 9 0  6 9 0  6.5 9 0  7 9 0  7.5 9 0  8 9 0  8.5 9 0  9 9 0  9.5 9 0  10 9 0  10.5 9 0  11 9 0  11.5 9 0  12 9 0  12.5 9 0  13 9 0  13.5 9 0  14 9 0  14.5 9 0  15 9 0  15.5 9 0  16 9 0  16.5 9 0  17 9 0  17.5 9 0  18 9 0  18.5 9 0  19 9 0  19.5 9 0  20 9 0  0 9.5 0  0.5 9.5 0  1 9.5 0  1.5 9.5 0  2 9.5 0  2.5 9.5 0  3 9.5 0  3.5 9.5 0  4 9.5 0  4.5 9.5 0  5 9.5 0  5.5 9.5 0  6 9.5 0  6.5 9.5 0  7 9.5 0  7.5 9.5 0  8 9.5 0  8.5 9.5 0  9 9.5 0  9.5 9.5 0  10 9.5 0  10.5 9.5 0  11 9.5 0  11.5 9.5 0  12 9.5 0  12.5 9.5 0  13 9.5 0  13.5 9.5 0  14 9.5 0  14.5 9.5 0  15 9.5 0  15.5 9.5 0  16 9.5 0  16.5 9.5 0  17 9.5 0  17.5 9.5 0  18 9.5 0  18.5 9.5 0  19 9.5 0  19.5 9.5 0  20 9.5 0  0 10 0  0.5 10 0  1 10 0  1.5 10 0  2 10 0  2.5 10 0  3 10 0  3.5 10 0  4 10 0  4.5 10 0  5 10 0  5.5 10 0  6 10 0  6.5 10 0  7 10 0  7.5 10 0  8 10 0  8.5 10 0  9 10 0  9.5 10 0  10 10 0  10.5 10 0  11 10 0  11.5 10 0  12 10 0  12.5 10 0  13 10 0  13.5 10 0  14 10 0  14.5 10 0  15 10 0  15.5 10 0  16 10 0  16.5 10 0  17 10 0  17.5 10 0  18 10 0  18.5 10 0  19 10 0  19.5 10 0  20 10 0  0 10.5 0  0.5 10.5 0  1 10.5 0  1.5 10.5 0  2 10.5 0  2.5 10.5 0  3 10.5 0  3.5 10.5 0  4 10.5 0  4.5 10.5 0  5 10.5 0  5.5 10.5 0  6 10.5 0  6.5 10.5 0  7 10.5 0  7.5 10.5 0  8 10.5 0  8.5 10.5 0  9 10.5 0  9.5 10.5 0  10 10.5 0  10.5 10.5 0  11 10.5 0  11.5 10.5 0  12 10.5 0  12.5 10.5 0  13 10.5 0  13.5 10.5 0  14 10.5 0  14.5 10.5 0  15 10.5 0  15.5 10.5 0  16 10.5 0  16.5 10.5 0  17 10.5 0  17.5 10.5 0  18 10.5 0  18.5 10.5 0  19 10.5 0  19.5 10.5 0  20 10.5 0  0 11 0  0.5 11 0  1 11 0  1.5 11 0  2 11 0  2.5 11 0  3 11 0  3.5 11 0  4 11 0  4.5 11 0  5 11 0  5.5 11 0  6 11 0  6.5 11 0  7 11 0  7.5 11 0  8 11 0  8.5 11 0  9 11 0  9.5 11 0  10 11 0  10.5 11 0  11 11 0  11.5 11 0  12 11 0  12.5 11 0  13 11 0  13.5 11 0  14 11 0  14.5 11 0  15 11 0  15.5 11 0  16 11 0  16.5 11 0  17 11 0  17.5 11 0  18 11 0  18.5 11 0  19 11 0  19.5 11 0  20 11 0  0 11.5 0  0.5 11.5 0  1 11.5 0  1.5 11.5 0  2 11.5 0  2.5 11.5 0  3 11.5 0  3.5 11.5 0  4 11.5 0  4.5 11.5 0  5 11.5 0  5.5 11.5 0  6 11.5 0  6.5 11.5 0  7 11.5 0  7.5 11.5 0  8 11.5 0  8.5 11.5 0  9 11.5 0  9.5 11.5 0  10 11.5 0  10.5 11.5 0  11 11.5 0  11.5 11.5 0  12 11.5 0  12.5 11.5 0  13 11.5 0  13.5 11.5 0  14 11.5 0  14.5 11.5 0  15 11.5 0  15.5 11.5 0  16 11.5 0  16.5 11.5 0  17 11.5 0  17.5 11.5 0  18 11.5 0  18.5 11.5 0  19 11.5 0  19.5 11.5 0  20 11.5 0  0 12 0  0.5 12 0  1 12 0  1.5 12 0  2 12 0  2.5 12 0  3 12 0  3.5 12 0  4 12 0  4.5 12 0  5 12 0  5.5 12 0  6 12 0  6.5 12 0  7 12 0  7.5 12 0  8 12 0  8.5 12 0  9 12 0  9.5 12 0  10 12 0  10.5 12 0  11 12 0  11.5 12 0  12 12 0  12.5 12 0  13 12 0  13.5 12 0  14 12 0  14.5 12 0  
[...]
<PointData  Vectors="f_5173-0"> 
<DataArray  type="Float64"  Name="f_5173-0"  NumberOfComponents="3" format="ascii">0.0000000000000000e+00 0.0000000000000000e+00 0.0000000000000000e+00  -5.5642010112472089e-07 0.0000000000000000e+00 0.0000000000000000e+00  -2.9131597107495751e-06 0.0000000000000000e+00 0.0000000000000000e+00  -9.3257706906266561e-06 0.0000000000000000e+00 0.0000000000000000e+00  -2.1798439041987462e-05 0.0000000000000000e+00 0.0000000000000000e+00  -4.2300924328671666e-05 0.0000000000000000e+00 0.0000000000000000e+00  -7.2770766010814563e-05 0.0000000000000000e+00 0.0000000000000000e+00  -1.1510194635933474e-04 0.0000000000000000e+00 0.0000000000000000e+00  -1.7113332589007043e-04 0.0000000000000000e+00 0.0000000000000000e+00  -2.4263685425053089e-04 0.0000000000000000e+00 0.0000000000000000e+00  -3.3130513101349736e-04 0.0000000000000000e+00 0.0000000000000000e+00  -4.3873805823348399e-04 0.0000000000000000e+00 0.0000000000000000e+00  -5.6642838650636013e-04 0.0000000000000000e+00 0.0000000000000000e+00  -7.1574593625864185e-04 0.0000000000000000e+00 0.0000000000000000e+00  -8.8792018726305993e-04 0.0000000000000000e+00 0.0000000000000000e+00  -1.0840207451522090e-03 0.0000000000000000e+00 0.0000000000000000e+00  -1.3049348566267383e-03 0.0000000000000000e+00 0.0000000000000000e+00  -1.5513405577290882e-03 0.0000000000000000e+00 0.0000000000000000e+00  -1.8236730476714645e-03 0.0000000000000000e+00 0.0000000000000000e+00  -2.1220802455655442e-03 0.0000000000000000e+00 0.0000000000000000e+00  -2.4463608491907202e-03 0.0000000000000000e+00 0.0000000000000000e+00  -2.7958740454316626e-03 0.0000000000000000e+00 0.0000000000000000e+00  -3.1694035734151638e-03 0.0000000000000000e+00 0.0000000000000000e+00  -3.5649490945526088e-03 0.0000000000000000e+00 0.0000000000000000e+00  -3.9794034636977862e-03 0.0000000000000000e+00 0.0000000000000000e+00  -4.4080539424584805e-03 0.0000000000000000e+00 0.0000000000000000e+00  -4.8438169462669545e-03 0.0000000000000000e+00 0.0000000000000000e+00  -5.2760780556651253e-03 0.0000000000000000e+00 0.0000000000000000e+00  -5.6889609548437803e-03 0.0000000000000000e+00 0.0000000000000000e+00  -6.0587913451392392e-03 0.0000000000000000e+00 0.0000000000000000e+00  -6.3504575960003466e-03 0.0000000000000000e+00 0.0000000000000000e+00  -6.5123043891451666e-03 0.0000000000000000e+00 0.0000000000000000e+00  -6.4691360332640186e-03 0.0000000000000000e+00 0.0000000000000000e+00  -6.1128580887458202e-03 0.0000000000000000e+00 0.0000000000000000e+00  -5.2902466730318344e-03 0.0000000000000000e+00 0.0000000000000000e+00  -3.7872817770590087e-03 0.0000000000000000e+00 0.0000000000000000e+00  -1.3093550644366280e-03 0.0000000000000000e+00 0.0000000000000000e+00  2.5436581910804838e-03 0.0000000000000000e+00 0.0000000000000000e+00  8.3092452782966755e-03 0.0000000000000000e+00 0.0000000000000000e+00  1.6704858280892042e-02 0.0000000000000000e+00 0.0000000000000000e+00  2.8694875825202387e-02 0.0000000000000000e+00 0.0000000000000000e+00  0.0000000000000000e+00 -5.5642010088705890e-07 0.0000000000000000e+00  6.9691204033504007e-07 6.9691204112513017e-07 0.0000000000000000e+00  -7.1534377586500194e-07 3.8410014278486969e-06 0.0000000000000000e+00  -6.1441169650364595e-06 8.9137684220455214e-06 0.0000000000000000e+00  -1.7612527315170780e-05 1.5952477504532496e-05 0.0000000000000000e+00  -3.7105418400446869e-05 2.4947688045173689e-05 0.0000000000000000e+00  -6.6565809238201240e-05 3.5865076601737733e-05 0.0000000000000000e+00  -1.0789004506616149e-04 4.8655558998461283e-05 0.0000000000000000e+00  -1.6291873419937023e-04 6.3258080774512590e-05 0.0000000000000000e+00  -2.3342576289306631e-04 7.9599808946063870e-05 0.0000000000000000e+00  -3.2110612248517195e-04 9.7595500767449673e-05 0.0000000000000000e+00  -4.2756266150041519e-04 1.1714661427546720e-04 0.0000000000000000e+00  -5.5429167489508258e-04 1.3814034189412171e-04 0.0000000000000000e+00  -7.0266714453536244e-04 1.6044863889927091e-04 0.0000000000000000e+00  -8.7392333250854281e-04 1.8392729091731277e-04 0.0000000000000000e+00  -1.0691352373812001e-03 2.0841506001075728e-04 0.0000000000000000e+00  -1.2891960841680374e-03 2.3373295069567844e-04 0.0000000000000000e+00  -1.5347904307282101e-03 2.5968364051135600e-04 0.0000000000000000e+00  -1.8063604813478983e-03 2.8605112296417959e-04 0.0000000000000000e+00  -2.1040615629119527e-03 3.1260061407380576e-04 0.0000000000000000e+00  -2.4277000800323671e-03 3.3907877762806132e-04 0.0000000000000000e+00  -2.7766430947314472e-03 3.6521432981657850e-04 0.0000000000000000e+00  -3.1496822250807561e-03 3.9071909341205699e-04 0.0000000000000000e+00  -3.5448248063975245e-03 4.1528958695963677e-04 0.0000000000000000e+00  -3.9589708938903984e-03 4.3860925802033959e-04 0.0000000000000000e+00  -4.3874141272133684e-03 4.6035150192347306e-04 0.0000000000000000e+00  -4.8230760241501497e-03 4.8018364480689827e-04 0.0000000000000000e+00  -5.2553454088237672e-03 4.9777210085032153e-04 0.0000000000000000e+00  -5.6683466151067575e-03 5.1278891370387008e-04 0.0000000000000000e+00  -6.0384024905045961e-03 5.2491982239790227e-04 0.0000000000000000e+00  -6.3303939177497487e-03 5.3387380004990830e-04 0.0000000000000000e+00  -6.4926519729717495e-03 5.3939364936462380e-04 0.0000000000000000e+00  -6.4499590196699453e-03 5.4126668579511145e-04 0.0000000000000000e+00  -6.0941864923218072e-03 5.3933386126434144e-04 0.0000000000000000e+00  -5.2720569679341502e-03 5.3349505128318141e-04 0.0000000000000000e+00  -3.7694638787269044e-03 5.2370779051690540e-04 0.0000000000000000e+00  -1.2916559150960448e-03 5.0997565268413262e-04 0.0000000000000000e+00  2.5617200782500492e-03 4.9231415454321437e-04 0.0000000000000000e+00  8.3284270888290528e-03 4.7063228002065208e-04 0.0000000000000000e+00  1.6725418858080141e-02 4.4421871806328469e-04 0.0000000000000000e+00  2.8705653817584838e-02 4.0945188819685089e-04 0.0000000000000000e+00  0.0000000000000000e+00 -2.9131597133141423e-06 0.0000000000000000e+00  3.8410014287495334e-06 -7.1534377570433080e-07 0.0000000000000000e+00  5.4837071035754070e-06 5.4837071020680060e-06 0.0000000000000000e+00  3.0820645911566059e-06 1.5649638350823843e-05 0.0000000000000000e+00  -5.3597950936518111e-06 2.9763762775635094e-05 0.0000000000000000e+00  -2.1823317989017033e-05 4.7782711252778927e-05 0.0000000000000000e+00  -4.8254969843528826e-05 6.9637447500484976e-05 0.0000000000000000e+00  -8.6555769649823054e-05 9.5233912160854026e-05 0.0000000000000000e+00  -1.3857154419288638e-04 1.2445368844510361e-04 0.0000000000000000e+00  -2.0608225765059949e-04 1.5715383424348415e-04 0.0000000000000000e+00  -2.9079020174031225e-04 1.9316592071402355e-04 0.0000000000000000e+00  -3.9430701153232419e-04 2.3229455788946360e-04 0.0000000000000000e+00  -5.1813942580681682e-04 2.7431564982895455e-04 0.0000000000000000e+00  -6.6367362731521566e-04 3.1897455045104805e-04 0.0000000000000000e+00  -8.3215787725710261e-04 3.6598424565858237e-04 0.0000000000000000e+00  -1.0246829584698804e-03 4.1502366714758245e-04 0.0000000000000000e+00  -1.2421595971489219e-03 4.6573623773826193e-04 0.0000000000000000e+00  -1.4852914420553900e-03 5.1772875009544915e-04 0.0000000000000000e+00  -1.7545411862236353e-03 5.7057068586320104e-04 0.0000000000000000e+00  -2.0500857789388879e-03 6.2379408922327623e-04 0.0000000000000000e+00  -2.3717540339411002e-03 6.7689411714989226e-04 0.0000000000000000e+00  -2.7189357641679737e-03 7.2933039980038901e-04 0.0000000000000000e+00  -3.0904451148061167e-03 7.8052935993050290e-04 0.0000000000000000e+00  -3.4843110051415859e-03 8.2988766292401361e-04 0.0000000000000000e+00  -3.8974532116918914e-03 8.7677700023726726e-04 0.0000000000000000e+00  -4.3251820536915507e-03 9.2055044813118636e-04 0.0000000000000000e+00  -4.7604311802765574e-03 9.6055068295138946e-04 0.0000000000000000e+00  -5.1925951020262481e-03 9.9612035682803248e-04 0.0000000000000000e+00  -5.6057950723370723e-03 1.0266149093527553e-03 0.0000000000000000e+00  -5.9763393668561347e-03 1.0514179601395007e-03 0.0000000000000000e+00  -6.2690797837443935e-03 1.0699591262498124e-03 0.0000000000000000e+00  -6.4323006683531083e-03 1.0817335628899487e-03 0.0000000000000000e+00  -6.3907169611663378e-03 1.0863216701500844e-03 0.0000000000000000e+00  -6.0361091044434101e-03 1.0834061674043470e-03 0.0000000000000000e+00  -5.2150822824723357e-03 1.0727818659045131e-03 0.0000000000000000e+00  -3.7133835488692450e-03 1.0543499088502327e-03 0.0000000000000000e+00  -1.2360877404633162e-03 1.0280790595057531e-03 0.0000000000000000e+00  2.6173323897309211e-03 9.9388930708780763e-04 0.0000000000000000e+00  8.3846685486017695e-03 9.5133400610402145e-04 0.0000000000000000e+00  1.6782156677316695e-02 8.9876116108562887e-04 0.0000000000000000e+00  2.8759631032253596e-02 8.3135751162803423e-04 0.0000000000000000e+00  0.0000000000000000e+00 -9.3257706913639389e-06 0.0000000000000000e+00  8.9137684214958952e-06 -6.1441169635849855e-06 0.0000000000000000e+00  1.5649638346665981e-05 3.0820645915318042e-06 0.0000000000000000e+00  1.8308472291092274e-05 1.8308472294413629e-05 0.0000000000000000e+00  1.4917218408801908e-05 3.9481954766621189e-05 0.0000000000000000e+00  3.4999608457436950e-06 6.6524216788692075e-05 0.0000000000000000e+00  -1.7890524018465572e-05 9.9325509036646753e-05 0.0000000000000000e+00  -5.1159568478310001e-05 1.3774352404820450e-04 0.0000000000000000e+00  -9.8159921692216100e-05 1.8160214869420273e-04 0.0000000000000000e+00  -1.6068084379782983e-04 2.3068968143431445e-04 0.0000000000000000e+00  -2.4043637669232456e-04 2.8475663395468031e-04 0.0000000000000000e+00  -3.3905253887707345e-04 3.4351321812971003e-04 0.0000000000000000e+00  -4.5805326135851338e-04 4.0662662618479943e-04 0.0000000000000000e+00  -5.9884485519267814e-04 4.7371822781742029e-04 0.0000000000000000e+00  -7.6269870380753712e-04 5.4436081865177118e-04 0.0000000000000000e+00  -9.5073168171310688e-04 6.1807606231484519e-04 0.0000000000000000e+00  -1.1638834585563488e-03 6.9433227640606674e-04 0.0000000000000000e+00  -1.4028892562662502e-03 7.7254272265965323e-04 0.0000000000000000e+00  -1.6682456316762257e-03 8.5206457276565221e-04 0.0000000000000000e+00  -1.9601652176046533e-03 9.3219873380945772e-04 0.0000000000000000e+00  -2.2785137098263182e-03 1.0121907308416694e-03 0.0000000000000000e+00  -2.6227182063716676e-03 1.0912328595438171e-03 0.0000000000000000e+00  -2.9916295386274478e-03 1.1684678404254945e-03 0.0000000000000000e+00  -3.3833114619968947e-03 1.2429942285453375e-03 0.0000000000000000e+00  -3.7947151840720178e-03 1.3138738592039798e-03 0.0000000000000000e+00  -4.2211771279648319e-03 1.3801416367730133e-03 0.0000000000000000e+00  -4.6556493675806634e-03 1.4408179893950410e-03 0.0000000000000000e+00  -5.0875343363819955e-03 1.4949242950825930e-03 0.0000000000000000e+00  -5.5009474288823376e-03 1.5415014944083040e-03 0.0000000000000000e+00  -5.8721736560681543e-03 1.5796318823442501e-03 0.0000000000000000e+00  -6.1660204370458218e-03 1.6084636325755649e-03 0.0000000000000000e+00  -6.3307032732206839e-03 1.6272368426307250e-03 0.0000000000000000e+00  -6.2908414546036526e-03 1.6353086461750356e-03 0.0000000000000000e+00  -5.9380925700477588e-03 1.6321729575593754e-03 0.0000000000000000e+00  -5.1189149217373562e-03 1.6174671046707099e-03 0.0000000000000000e+00  -3.6188952683765246e-03 1.5909515167951804e-03 0.0000000000000000e+00  -1.1429637315091424e-03 1.5524364583947483e-03 0.0000000000000000e+00  2.7094582533144862e-03 1.5016056419038793e-03 0.0000000000000000e+00  8.4759191011413611e-03 1.4376466656190016e-03 0.0000000000000000e+00  1.6871662584099979e-02 1.3585741002381251e-03 0.0000000000000000e+00  2.8844183463309248e-02 1.2603265057795896e-03 0.0000000000000000e+00  0.0000000000000000e+00 -2.1798439040390662e-05 0.0000000000000000e+00  1.5952477502912301e-05 -1.7612527313292335e-05 0.0000000000000000e+00  2.9763762773443904e-05 -5.3597950918550671e-06 0.0000000000000000e+00  3.9481954764777828e-05 1.4917218409054161e-05 0.0000000000000000e+00  4.3141199526026451e-05 4.3141199528254026e-05 0.0000000000000000e+00  3.8769446766168678e-05 7.9202747458774310e-05 0.0000000000000000e+00  2.4417990525746372e-05 1.2295405366954802e-04 0.0000000000000000e+00  -1.8237810860448737e-06 1.7420630295204964e-04 0.0000000000000000e+00  -4.1817262362257594e-05 2.3272729708505706e-04 0.0000000000000000e+00  -9.7363785404337916e-05 2.9823862431231857e-04 0.0000000000000000e+00  -1.7019308594811458e-04 3.7041236205210393e-04 0.0000000000000000e+00  -2.6195072090785045e-04 4.4886743742722854e-04 0.0000000000000000e+00  -3.7418420576926703e-04 5.3316578410060990e-04 0.0000000000000000e+00  -5.0832762812985622e-04 6.2280843799768606e-04 0.0000000000000000e+00  -6.6568440307681416e-04 7.1723172728272670e-04 0.0000000000000000e+00  -8.4740764854911654e-04 8.1580372998163876e-04 0.0000000000000000e+00  -1.0544773181118620e-03 9.1782119321103407e-04 0.0000000000000000e+00  -1.2876726378673350e-03 1.0225071289213686e-03 0.0000000000000000e+00  -1.5475373982496736e-03 1.1290093221329616e-03 0.0000000000000000e+00  -1.8343340103481860e-03 1.2364000081268236e-03 0.0000000000000000e+00  -2.1479795880001459e-03 1.3436769951470681e-03 0.0000000000000000e+00  -2.4879531316546757e-03 1.4497665284709130e-03 0.0000000000000000e+00  -2.8531564172426384e-03 1.5535282105052215e-03 0.0000000000000000e+00  -3.2417014152690592e-03 1.6537623085115074e-03 0.0000000000000000e+00  -3.6505826709000823e-03 1.7492197941348319e-03 0.0000000000000000e+00  -4.0751724973074515e-03 1.8386154597801140e-03 0.0000000000000000e+00  -4.5084483901106443e-03 1.9206444314266897e-03 0.0000000000000000e+00  -4.9398242779325370e-03 1.9940023193729460e-03 0.0000000000000000e+00  -5.3534093242702131e-03 2.0574090745635386e-03 0.0000000000000000e+00  -5.7254606739613979e-03 2.1096362838504547e-03 0.0000000000000000e+00  -6.0207326592250530e-03 2.1495370504912487e-03 0.0000000000000000e+00  -6.1873599200700643e-03 2.1760766388191086e-03 0.0000000000000000e+00  -6.1498526807790182e-03 2.1883605306557072e-03 0.0000000000000000e+00  -5.7997346614004092e-03 2.1856541588394268e-03 0.0000000000000000e+00  -4.9833156397143816e-03 2.1673848736335809e-03 0.0000000000000000e+00  -3.4860416287590549e-03 2.1331109200514111e-03 0.0000000000000000e+00  -1.0127553933183750e-03 2.0824336503417608e-03 0.0000000000000000e+00  2.8370676870256416e-03 2.0148191207653519e-03 0.0000000000000000e+00  8.6006299562979525e-03 1.9292937916666716e-03 0.0000000000000000e+00  1.6992361435683553e-02 1.8240230142643160e-03 0.0000000000000000e+00  2.8958652939512296e-02 1.6959554302018083e-03 0.0000000000000000e+00  0.0000000000000000e+00 -4.2300924326487432e-05 0.0000000000000000e+00  2.4947688044024831e-05 -3.7105418397112778e-05 0.0000000000000000e+00  4.7782711250084251e-05 -2.1823317988296655e-05 0.0000000000000000e+00  6.6524216788144404e-05 3.4999608459390907e-06 0.0000000000000000e+00  7.9202747459724234e-05 3.8769446768278515e-05 0.0000000000000000e+00  8.3848137709111002e-05 8.3848137708999830e-05 0.0000000000000000e+00  7.8509557087457033e-05 1.3855321883521622e-04 0.0000000000000000e+00  6.1270137958024536e-05 2.0265255187679304e-04 0.0000000000000000e+00  3.0258144714336516e-05 2.7586127732703804e-04 0.0000000000000000e+00  -1.6342408637387136e-05 3.5783797189914467e-04 0.0000000000000000e+00  -8.0280564242773568e-05 4.4818029889917587e-04 0.0000000000000000e+00  -1.6322617986724421e-04 5.4642025386906698e-04 0.0000000000000000e+00  -2.6675635563802943e-04 6.5201915497950481e-04 0.0000000000000000e+00  -3.9234025178887157e-04 7.6436254907937581e-04 0.0000000000000000e+00  -5.4132193624545756e-04 8.8275522423069330e-04 0.0000000000000000e+00  -7.1490071345547469e-04 1.0064165437423541e-03 0.0000000000000000e+00  -9.1410804436906730e-04 1.1344763443537412e-03 0.0000000000000000e+00  -1.1397795754000046e-03 1.2659716707625341e-03 0.0000000000000000e+00  -1.3925197970427146e-03 1.3998446488927255e-03 0.0000000000000000e+00  -1.6726552101669105e-03 1.5349418292652046e-03 0.0000000000000000e+00  -1.9801692281284865e-03 1.6700153588487825e-03 0.0000000000000000e+00  -2.3146078555980479e-03 1.8037263628379323e-03 0.0000000000000000e+00  -2.6749387110270692e-03 1.9346509355234710e-03 0.0000000000000000e+00  -3.0593361820876047e-03 2.0612891478704394e-03 0.0000000000000000e+00  -3.4648511143650544e-03 2.1820774733269949e-03 0.0000000000000000e+00  -3.8869028706082849e-03 2.2954050020677994e-03 0.0000000000000000e+00  -4.3185031876842393e-03 2.3996337398052158e-03 0.0000000000000000e+00  -4.7490835293030696e-03 2.4931231420105963e-03 0.0000000000000000e+00  -5.1627498397674217e-03 2.5742587748762689e-03 0.0000000000000000e+00  -5.5357314459743550e-03 2.6414845579692276e-03 0.0000000000000000e+00  -5.8327272102020504e-03 2.6933373450783757e-03 0.0000000000000000e+00  -6.0017872946238303e-03 2.7284815261802262e-03 0.0000000000000000e+00  -5.9673101204402012e-03 2.7457397406871870e-03 0.0000000000000000e+00  -5.6206869672733219e-03 2.7441135111030603e-03 0.0000000000000000e+00  -4.8080891444257177e-03 2.7227844936445924e-03 0.0000000000000000e+00  -3.3148449607395976e-03 2.6810831866341945e-03 0.0000000000000000e+00  -8.4574457832919611e-04 2.6184082876545920e-03 0.0000000000000000e+00  2.9996595575206889e-03 2.5340797412582482e-03 0.0000000000000000e+00  8.7582940410971637e-03 2.4271199118366623e-03 0.0000000000000000e+00  1.7144122992549582e-02 2.2959929640098504e-03 0.0000000000000000e+00  2.9103231933891773e-02 2.1383876576428710e-03 0.0000000000000000e+00  0.0000000000000000e+00 -7.2770766011124346e-05 0.0000000000000000e+00  3.5865076602856914e-05 -6.6565809235330341e-05 0.0000000000000000e+00  6.9637447501012941e-05 -4.8254969841825090e-05 0.0000000000000000e+00  9.9325509036001164e-05 -1.7890524017190771e-05 0.0000000000000000e+00  1.2295405366825616e-04 2.4417990526310510e-05 0.0000000000000000e+00  1.3855321883300570e-04 7.8509557089320641e-05 0.0000000000000000e+00  1.4416981531665727e-04 1.4416981531944828e-04 0.0000000000000000e+00  1.3788025498708538e-04 2.2112715628899626e-04 0.0000000000000000e+00  1.1780128298570207e-04 3.0904841444152653e-04 0.0000000000000000e+00  8.2100175017530975e-05 4.0753400249368492e-04 0.0000000000000000e+00  2.9005459171625768e-05 5.1611246532883362e-04 0.0000000000000000e+00  -4.3181301858184531e-05 6.3423455210636726e-04 0.0000000000000000e+00  -1.3607232899736323e-04 7.6126696359376156e-04 0.0000000000000000e+00  -2.5117873072266024e-04 8.9648596631219273e-04 0.0000000000000000e+00  -3.8989349841939087e-04 1.0390710956850893e-03 0.0000000000000000e+00  -5.5347181185037191e-04 1.1880992041764207e-03 0.0000000000000000e+00  -7.4300773023175338e-04 1.3425391468460412e-03 0.0000000000000000e+00  -9.5940575015760507e-04 1.5012474357938689e-03 0.0000000000000000e+00  -1.2033447127493815e-03 1.6629652346233570e-03 0.0000000000000000e+00  -1.4752298984982706e-03 1.8263171022005679e-03 0.0000000000000000e+00  -1.7751264981328624e-03 1.9898119295719062e-03 0.0000000000000000e+00  -2.1026634617927649e-03 2.1518465415163923e-03 0.0000000000000000e+00  -2.4568902586842301e-03 2.3107124512776280e-03 0.0000000000000000e+00  -2.8360593099181703e-03 2.4646062570889550e-03 0.0000000000000000e+00  -3.2372924844857156e-03 2.6116441444882770e-03 0.0000000000000000e+00  -3.6560695150161401e-03 2.7498808951060189e-03 0.0000000000000000e+00  -4.0854478304088405e-03 2.8773336820812350e-03 0.0000000000000000e+00  -4.5148856549675322e-03 2.9920107255268775e-03 0.0000000000000000e+00  -4.9284925540642498e-03 3.0919445497443695e-03 0.0000000000000000e+00  -5.3024746226201843e-03 3.1752290741941486e-03 0.0000000000000000e+00  -5.6014780997891466e-03 3.2400590168226136e-03 0.0000000000000000e+00  -5.7734707414136286e-03 3.2847690158391576e-03 0.0000000000000000e+00  -5.7427418456632000e-03 3.3078684123692467e-03 0.0000000000000000e+00  -5.4005550582151710e-03 3.3080657540123207e-03 0.0000000000000000e+00  -4.5929508588440889e-03 3.2842748910138614e-03 0.0000