<?xml version="1.0"?>
<VTKFile type="UnstructuredGrid"  version="0.1"  >
<UnstructuredGrid>
<Piece  NumberOfPoints="1681" NumberOfCells="3200">
<Points>
<DataArray  type="Float64"  NumberOfComponents="3"  format="ascii">0 0 0  0.5 0 0  1 0 0  1.5 0 0  2 0 0  2.5 0 0  3 0 0  3.5 0 0  4 0 0  4.5 0 0  5 0 0  5.5 0 0  6 0 0  6.5 0 0  7 0 0  7.5 0 0  8 0 0  8.5 0 0  9 0 0  9.5 0 0  10 0 0  10.5 0 0  11 0 0  11.5 0 0  12 0 0  12.5 0 0  13 0 0  13.5 0 0  14 0 0  14.5 0 0  15 0 0  15.5 0 0  16 0 0  16.5 0 0  17 0 0  17.5 0 0  18 0 0  18.5 0 0  19 0 0  19.5 0 0  20 0 0  0 0.5 0  0.5 0.5 0  1 0.5 0  1.5 0.5 0  2 0.5 0  2.5 0.5 0  3 0.5 0  3.5 0.5 0  4 0.5 0  4.5 0.5 0  5 0.5 0  5.5 0.5 0  6 0.5 0  6.5 0.5 0  7 0.5 0  7.5 0.5 0  8 0.5 0  8.5 0.5 0  9 0.5 0  9.5 0.5 0  10 0.5 0  10.5 0.5 0  11 0.5 0  11.5 0.5 0  12 0.5 0  12.5 0.5 0  13 0.5 0  13.5 0.5 0  14 0.5 0  14.5 0.5 0  15 0.5 0  15.5 0.5 0  16 0.5 0  16.5 0.5 0  17 0.5 0  17.5 0.5 0  18 0.5 0  18.5 0.5 0  19 0.5 0  19.5 0.5 0  20 0.5 0  0 1 0  0.5 1 0  1 1 0  1.5 1 0  2 1 0  2.5 1 0  3 1 0  3.5 1 0  4 1 0  4.5 1 0  5 1 0  5.5 1 0  6 1 0  6.5 1 0  7 1 0  7.5 1 0  8 1 0  8.5 1 0  9 1 0  9.5 1 0  10 1 0  10.5 1 0  11 1 0  11.5 1 0  12 1 0  12.5 1 0  13 1 0  13.5 1 0  14 1 0  14.5 1 0  15 1 0  15.5 1 0  16 1 0  16.5 1 0  17 1 0  17.5 1 0  18 1 0  18.5 1 0  19 1 0  19.5 1 0  20 1 0  0 1.5 0  0.5 1.5 0  1 1.5 0  1.5 1.5 0  2 1.5 0  2.5 1.5 0  3 1.5 0  3.5 1.5 0  4 1.5 0  4.5 1.5 0  5 1.5 0  5.5 1.5 0  6 1.5 0  6.5 1.5 0  7 1.5 0  7.5 1.5 0  8 1.5 0  8.5 1.5 0  9 1.5 0  9.5 1.5 0  10 1.5 0  10.5 1.5 0  11 1.5 0  11.5 1.5 0  12 1.5 0  12.5 1.5 0  13 1.5 0  13.5 1.5 0  14 1.5 0  14.5 1.5 0  15 1.5 0  15.5 1.5 0  16 1.5 0  16.5 1.5 0  17 1.5 0  17.5 1.5 0  18 1.5 0  18.5 1.5 0  19 1.5 0  19.5 1.5 0  20 1.5 0  0 2 0  0.5 2 0  1 2 0  1.5 2 0  2 2 0  2.5 2 0  3 2 0  3.5 2 0  4 2 0  4.5 2 0  5 2 0  5.5 2 0  6 2 0  6.5 2 0  7 2 0  7.5 2 0  8 2 0  8.5 2 0  9 2 0  9.5 2 0  10 2 0  10.5 2 0  11 2 0  11.5 2 0  12 2 0  12.5 2 0  13 2 0  13.5 2 0  14 2 0  14.5 2 0  15 2 0  15.5 2 0  16 2 0  16.5 2 0  17 2 0  17.5 2 0  18 2 0  18.5 2 0  19 2 0  19.5 2 0  20 2 0  0 2.5 0  0.5 2.5 0  1 2.5 0  1.5 2.5 0  2 2.5 0  2.5 2.5 0  3 2.5 0  3.5 2.5 0  4 2.5 0  4.5 2.5 0  5 2.5 0  5.5 2.5 0  6 2.5 0  6.5 2.5 0  7 2.5 0  7.5 2.5 0  8 2.5 0  8.5 2.5 0  9 2.5 0  9.5 2.5 0  10 2.5 0  10.5 2.5 0  11 2.5 0  11.5 2.5 0  12 2.5 0  12.5 2.5 0  13 2.5 0  13.5 2.5 0  14 2.5 0  14.5 2.5 0  15 2.5 0  15.5 2.5 0  16 2.5 0  16.5 2.5 0  17 2.5 0  17.5 2.5 0  18 2.5 0  18.5 2.5 0  19 2.5 0  19.5 2.5 0  20 2.5 0  0 3 0  0.5 3 0  1 3 0  1.5 3 0  2 3 0  2.5 3 0  3 3 0  3.5 3 0  4 3 0  4.5 3 0  5 3 0  5.5 3 0  6 3 0  6.5 3 0  7 3 0  7.5 3 0  8 3 0  8.5 3 0  9 3 0  9.5 3 0  10 3 0  10.5 3 0  11 3 0  11.5 3 0  12 3 0  12.5 3 0  13 3 0  13.5 3 0  14 3 0  14.5 3 0  15 3 0  15.5 3 0  16 3 0  16.5 3 0  17 3 0  17.5 3 0  18 3 0  18.5 3 0  19 3 0  19.5 3 0  20 3 0  0 3.5 0  0.5 3.5 0  1 3.5 0  1.5 3.5 0  2 3.5 0  2.5 3.5 0  3 3.5 0  3.5 3.5 0  4 3.5 0  4.5 3.5 0  5 3.5 0  5.5 3.5 0  6 3.5 0  6.5 3.5 0  7 3.5 0  7.5 3.5 0  8 3.5 0  8.5 3.5 0  9 3.5 0  9.5 3.5 0  10 3.5 0  10.5 3.5 0  11 3.5 0  11.5 3.5 0  12 3.5 0  12.5 3.5 0  13 3.5 0  13.5 3.5 0  14 3.5 0  14.5 3.5 0  15 3.5 0  15.5 3.5 0  16 3.5 0  16.5 3.5 0  17 3.5 0  17.5 3.5 0  18 3.5 0  18.5 3.5 0  19 3.5 0  19.5 3.5 0  20 3.5 0  0 4 0  0.5 4 0  1 4 0  1.5 4 0  2 4 0  2.5 4 0  3 4 0  3.5 4 0  4 4 0  4.5 4 0  5 4 0  5.5 4 0  6 4 0  6.5 4 0  7 4 0  7.5 4 0  8 4 0  8.5 4 0  9 4 0  9.5 4 0  10 4 0  10.5 4 0  11 4 0  11.5 4 0  12 4 0  12.5 4 0  13 4 0  13.5 4 0  14 4 0  14.5 4 0  15 4 0  15.5 4 0  16 4 0  16.5 4 0  17 4 0  17.5 4 0  18 4 0  18.5 4 0  19 4 0  19.5 4 0  20 4 0  0 4.5 0  0.5 4.5 0  1 4.5 0  1.5 4.5 0  2 4.5 0  2.5 4.5 0  3 4.5 0  3.5 4.5 0  4 4.5 0  4.5 4.5 0  5 4.5 0  5.5 4.5 0  6 4.5 0  6.5 4.5 0  7 4.5 0  7.5 4.5 0  8 4.5 0  8.5 4.5 0  9 4.5 0  9.5 4.5 0  10 4.5 0  10.5 4.5 0  11 4.5 0  11.5 4.5 0  12 4.5 0  12.5 4.5 0  13 4.5 0  13.5 4.5 0  14 4.5 0  14.5 4.5 0  15 4.5 0  15.5 4.5 0  16 4.5 0  16.5 4.5 0  17 4.5 0  17.5 4.5 0  18 4.5 0  18.5 4.5 0  19 4.5 0  19.5 4.5 0  20 4.5 0  0 5 0  0.5 5 0  1 5 0  1.5 5 0  2 5 0  2.5 5 0  3 5 0  3.5 5 0  4 5 0  4.5 5 0  5 5 0  5.5 5 0  6 5 0  6.5 5 0  7 5 0  7.5 5 0  8 5 0  8.5 5 0  9 5 0  9.5 5 0  10 5 0  10.5 5 0  11 5 0  11.5 5 0  12 5 0  12.5 5 0  13 5 0  13.5 5 0  14 5 0  14.5 5 0  15 5 0  15.5 5 0  16 5 0  16.5 5 0  17 5 0  17.5 5 0  18 5 0  18.5 5 0  19 5 0  19.5 5 0  20 5 0  0 5.5 0  0.5 5.5 0  1 5.5 0  1.5 5.5 0  2 5.5 0  2.5 5.5 0  3 5.5 0  3.5 5.5 0  4 5.5 0  4.5 5.5 0  5 5.5 0  5.5 5.5 0  6 5.5 0  6.5 5.5 0  7 5.5 0  7.5 5.5 0  8 5.5 0  8.5 5.5 0  9 5.5 0  9.5 5.5 0  10 5.5 0  10.5 5.5 0  11 5.5 0  11.5 5.5 0  12 5.5 0  12.5 5.5 0  13 5.5 0  13.5 5.5 0  14 5.5 0  14.5 5.5 0  15 5.5 0  15.5 5.5 0  16 5.5 0  16.5 5.5 0  17 5.5 0  17.5 5.5 0  18 5.5 0  18.5 5.5 0  19 5.5 0  19.5 5.5 0  20 5.5 0  0 6 0  0.5 6 0  1 6 0  1.5 6 0  2 6 0  2.5 6 0  3 6 0  3.5 6 0  4 6 0  4.5 6 0  5 6 0  5.5 6 0  6 6 0  6.5 6 0  7 6 0  7.5 6 0  8 6 0  8.5 6 0  9 6 0  9.5 6 0  10 6 0  10.5 6 0  11 6 0  11.5 6 0  12 6 0  12.5 6 0  13 6 0  13.5 6 0  14 6 0  14.5 6 0  15 6 0  15.5 6 0  16 6 0  16.5 6 0  17 6 0  17.5 6 0  18 6 0  18.5 6 0  19 6 0  19.5 6 0  20 6 0  0 6.5 0  0.5 6.5 0  1 6.5 0  1.5 6.5 0  2 6.5 0  2.5 6.5 0  3 6.5 0  3.5 6.5 0  4 6.5 0  4.5 6.5 0  5 6.5 0  5.5 6.5 0  6 6.5 0  6.5 6.5 0  7 6.5 0  7.5 6.5 0  8 6.5 0  8.5 6.5 0  9 6.5 0  9.5 6.5 0  10 6.5 0  10.5 6.5 0  11 6.5 0  11.5 6.5 0  12 6.5 0  12.5 6.5 0  13 6.5 0  13.5 6.5 0  14 6.5 0  14.5 6.5 0  15 6.5 0  15.5 6.5 0  16 6.5 0  16.5 6.5 0  17 6.5 0  17.5 6.5 0  18 6.5 0  18.5 6.5 0  19 6.5 0  19.5 6.5 0  20 6.5 0  0 7 0  0.5 7 0  1 7 0  1.5 7 0  2 7 0  2.5 7 0  3 7 0  3.5 7 0  4 7 0  4.5 7 0  5 7 0  5.5 7 0  6 7 0  6.5 7 0  7 7 0  7.5 7 0  8 7 0  8.5 7 0  9 7 0  9.5 7 0  10 7 0  10.5 7 0  11 7 0  11.5 7 0  12 7 0  12.5 7 0  13 7 0  13.5 7 0  14 7 0  14.5 7 0  15 7 0  15.5 7 0  16 7 0  16.5 7 0  17 7 0  17.5 7 0  18 7 0  18.5 7 0  19 7 0  19.5 7 0  20 7 0  0 7.5 0  0.5 7.5 0  1 7.5 0  1.5 7.5 0  2 7.5 0  2.5 7.5 0  3 7.5 0  3.5 7.5 0  4 7.5 0  4.5 7.5 0  5 7.5 0  5.5 7.5 0  6 7.5 0  6.5 7.5 0  7 7.5 0  7.5 7.5 0  8 7.5 0  8.5 7.5 0  9 7.5 0  9.5 7.5 0  10 7.5 0  10.5 7.5 0  11 7.5 0  11.5 7.5 0  12 7.5 0  12.5 7.5 0  13 7.5 0  13.5 7.5 0  14 7.5 0  14.5 7.5 0  15 7.5 0  15.5 7.5 0  16 7.5 0  16.5 7.5 0  17 7.5 0  17.5 7.5 0  18 7.5 0  18.5 7.5 0  19 7.5 0  19.5 7.5 0  20 7.5 0  0 8 0  0.5 8 0  1 8 0  1.5 8 0  2 8 0  2.5 8 0  3 8 0  3.5 8 0  4 8 0  4.5 8 0  5 8 0  5.5 8 0  6 8 0  6.5 8 0  7 8 0  7.5 8 0  8 8 0  8.5 8 0  9 8 0  9.5 8 0  10 8 0  10.5 8 0  11 8 0  11.5 8 0  12 8 0  12.5 8 0  13 8 0  13.5 8 0  14 8 0  14.5 8 0  15 8 0  15.5 8 0  16 8 0  16.5 8 0  17 8 0  17.5 8 0  18 8 0  18.5 8 0  19 8 0  19.5 8 0  20 8 0  0 8.5 0  0.5 8.5 0  1 8.5 0  1.5 8.5 0  2 8.5 0  2.5 8.5 0  3 8.5 0  3.5 8.5 0  4 8.5 0  4.5 8.5 0  5 8.5 0  5.5 8.5 0  6 8.5 0  6.5 8.5 0  7 8.5 0  7.5 8.5 0  8 8.5 0  8.5 8.5 0  9 8.5 0  9.5 8.5 0  10 8.5 0  10.5 8.5 0  11 8.5 0  11.5 8.5 0  12 8.5 0  12.5 8.5 0  13 8.5 0  13.5 8.5 0  14 8.5 0  14.5 8.5 0  15 8.5 0  15.5 8.5 0  16 8.5 0  16.5 8.5 0  17 8.5 0  17.5 8.5 0  18 8.5 0  18.5 8.5 0  19 8.5 0  19.5 8.5 0  20 8.5 0  0 9 0  0.5 9 0  1 9 0  1.5 9 0  2 9 0  2.5 9 0  3 9 0  3.5 9 0  4 9 0  4.5 9 0  5 9 0  5.5 9 0  6 9 0  6.5 9 0  7 9 0  7.5 9 0  8 9 0  8.5 9 0  9 9 0  9.5 9 0  10 9 0  10.5 9 0  11 9 0  11.5 9 0  12 9 0  12.5 9 0  13 9 0  13.5 9 0  14 9 0  14.5 9 0  15 9 0  15.5 9 0  16 9 0  16.5 9 0  17 9 0  17.5 9 0  18 9 0  18.5 9 0  19 9 0  19.5 9 0  20 9 0  0 9.5 0  0.5 9.5 0  1 9.5 0  1.5 9.5 0  2 9.5 0  2.5 9.5 0  3 9.5 0  3.5 9.5 0  4 9.5 0  4.5 9.5 0  5 9.5 0  5.5 9.5 0  6 9.5 0  6.5 9.5 0  7 9.5 0  7.5 9.5 0  8 9.5 0  8.5 9.5 0  9 9.5 0  9.5 9.5 0  10 9.5 0  10.5 9.5 0  11 9.5 0  11.5 9.5 0  12 9.5 0  12.5 9.5 0  13 9.5 0  13.5 9.5 0  14 9.5 0  14.5 9.5 0  15 9.5 0  15.5 9.5 0  16 9.5 0  16.5 9.5 0  17 9.5 0  17.5 9.5 0  18 9.5 0  18.5 9.5 0  19 9.5 0  19.5 9.5 0  20 9.5 0  0 10 0  0.5 10 0  1 10 0  1.5 10 0  2 10 0  2.5 10 0  3 10 0  3.5 10 0  4 10 0  4.5 10 0  5 10 0  5.5 10 0  6 10 0  6.5 10 0  7 10 0  7.5 10 0  8 10 0  8.5 10 0  9 10 0  9.5 10 0  10 10 0  10.5 10 0  11 10 0  11.5 10 0  12 10 0  12.5 10 0  13 10 0  13.5 10 0  14 10 0  14.5 10 0  15 10 0  15.5 10 0  16 10 0  16.5 10 0  17 10 0  17.5 10 0  18 10 0  18.5 10 0  19 10 0  19.5 10 0  20 10 0  0 10.5 0  0.5 10.5 0  1 10.5 0  1.5 10.5 0  2 10.5 0  2.5 10.5 0  3 10.5 0  3.5 10.5 0  4 10.5 0  4.5 10.5 0  5 10.5 0  5.5 10.5 0  6 10.5 0  6.5 10.5 0  7 10.5 0  7.5 10.5 0  8 10.5 0  8.5 10.5 0  9 10.5 0  9.5 10.5 0  10 10.5 0  10.5 10.5 0  11 10.5 0  11.5 10.5 0  12 10.5 0  12.5 10.5 0  13 10.5 0  13.5 10.5 0  14 10.5 0  14.5 10.5 0  15 10.5 0  15.5 10.5 0  16 10.5 0  16.5 10.5 0  17 10.5 0  17.5 10.5 0  18 10.5 0  18.5 10.5 0  19 10.5 0  19.5 10.5 0  20 10.5 0  0 11 0  0.5 11 0  1 11 0  1.5 11 0  2 11 0  2.5 11 0  3 11 0  3.5 11 0  4 11 0  4.5 11 0  5 11 0  5.5 11 0  6 11 0  6.5 11 0  7 11 0  7.5 11 0  8 11 0  8.5 11 0  9 11 0  9.5 11 0  10 11 0  10.5 11 0  11 11 0  11.5 11 0  12 11 0  12.5 11 0  13 11 0  13.5 11 0  14 11 0  14.5 11 0  15 11 0  15.5 11 0  16 11 0  16.5 11 0  17 11 0  17.5 11 0  18 11 0  18.5 11 0  19 11 0  19.5 11 0  20 11 0  0 11.5 0  0.5 11.5 0  1 11.5 0  1.5 11.5 0  2 11.5 0  2.5 11.5 0  3 11.5 0  3.5 11.5 0  4 11.5 0  4.5 11.5 0  5 11.5 0  5.5 11.5 0  6 11.5 0  6.5 11.5 0  7 11.5 0  7.5 11.5 0  8 11.5 0  8.5 11.5 0  9 11.5 0  9.5 11.5 0  10 11.5 0  10.5 11.5 0  11 11.5 0  11.5 11.5 0  12 11.5 0  12.5 11.5 0  13 11.5 0  13.5 11.5 0  14 11.5 0  14.5 11.5 0  15 11.5 0  15.5 11.5 0  16 11.5 0  16.5 11.5 0  17 11.5 0  17.5 11.5 0  18 11.5 0  18.5 11.5 0  19 11.5 0  19.5 11.5 0  20 11.5 0  0 12 0  0.5 12 0  1 12 0  1.5 12 0  2 12 0  2.5 12 0  3 12 0  3.5 12 0  4 12 0  4.5 12 0  5 12 0  5.5 12 0  6 12 0  6.5 12 0  7 12 0  7.5 12 0  8 12 0  8.5 12 0  9 12 0  9.5 12 0  10 12 0  10.5 12 0  11 12 0  11.5 12 0  12 12 0  12.5 12 0  13 12 0  13.5 12 0  14 12 0  14.5 12 0  
[...]
<PointData  Vectors="f_5173-0"> 
<DataArray  type="Float64"  Name="f_5173-0"  NumberOfComponents="3" format="ascii">0.0000000000000000e+00 0.0000000000000000e+00 0.0000000000000000e+00  -2.9709034170990836e-07 0.0000000000000000e+00 0.0000000000000000e+00  -1.6088771021986992e-06 0.0000000000000000e+00 0.0000000000000000e+00  -5.1766795809752712e-06 0.0000000000000000e+00 0.0000000000000000e+00  -1.2113898776295514e-05 0.0000000000000000e+00 0.0000000000000000e+00  -2.3516075012168982e-05 0.0000000000000000e+00 0.0000000000000000e+00  -4.0460995305989816e-05 0.0000000000000000e+00 0.0000000000000000e+00  -6.4002222369959131e-05 0.0000000000000000e+00 0.0000000000000000e+00  -9.5162636487565325e-05 0.0000000000000000e+00 0.0000000000000000e+00  -1.3492790018206825e-04 0.0000000000000000e+00 0.0000000000000000e+00  -1.8423960234013661e-04 0.0000000000000000e+00 0.0000000000000000e+00  -2.4398795645849593e-04 0.0000000000000000e+00 0.0000000000000000e+00  -3.1500398522275018e-04 0.0000000000000000e+00 0.0000000000000000e+00  -3.9805114730620235e-04 0.0000000000000000e+00 0.0000000000000000e+00  -4.9381636822909923e-04 0.0000000000000000e+00 0.0000000000000000e+00  -6.0290042373354995e-04 0.0000000000000000e+00 0.0000000000000000e+00  -7.2580757955375728e-04 0.0000000000000000e+00 0.0000000000000000e+00  -8.6293429090206252e-04 0.0000000000000000e+00 0.0000000000000000e+00  -1.0145565633650228e-03 0.0000000000000000e+00 0.0000000000000000e+00  -1.1808151947515140e-03 0.0000000000000000e+00 0.0000000000000000e+00  -1.3616974181336989e-03 0.0000000000000000e+00 0.0000000000000000e+00  -1.5570122151454223e-03 0.0000000000000000e+00 0.0000000000000000e+00  -1.7663543734185230e-03 0.0000000000000000e+00 0.0000000000000000e+00  -1.9890485747905305e-03 0.0000000000000000e+00 0.0000000000000000e+00  -2.2240583784937065e-03 0.0000000000000000e+00 0.0000000000000000e+00  -2.4698342698107577e-03 0.0000000000000000e+00 0.0000000000000000e+00  -2.7240575044209644e-03 0.0000000000000000e+00 0.0000000000000000e+00  -2.9832087121055687e-03 0.0000000000000000e+00 0.0000000000000000e+00  -3.2418472714607180e-03 0.0000000000000000e+00 0.0000000000000000e+00  -3.4914233150326966e-03 0.0000000000000000e+00 0.0000000000000000e+00  -3.7183525085735655e-03 0.0000000000000000e+00 0.0000000000000000e+00  -3.9009597654975675e-03 0.0000000000000000e+00 0.0000000000000000e+00  -4.0047424622124440e-03 0.0000000000000000e+00 0.0000000000000000e+00  -3.9752277652300950e-03 0.0000000000000000e+00 0.0000000000000000e+00  -3.7275290756959320e-03 0.0000000000000000e+00 0.0000000000000000e+00  -3.1315845411388761e-03 0.0000000000000000e+00 0.0000000000000000e+00  -1.9920246990291425e-03 0.0000000000000000e+00 0.0000000000000000e+00  -2.1654553622174105e-05 0.0000000000000000e+00 0.0000000000000000e+00  3.1925203583318606e-03 0.0000000000000000e+00 0.0000000000000000e+00  8.2326450682324009e-03 0.0000000000000000e+00 0.0000000000000000e+00  1.5911608916449448e-02 0.0000000000000000e+00 0.0000000000000000e+00  0.0000000000000000e+00 -2.9709034166176190e-07 0.0000000000000000e+00  3.9048259837484320e-07 3.9048259937205583e-07 0.0000000000000000e+00  -3.9187784140960252e-07 2.1323277005126908e-06 0.0000000000000000e+00  -3.4102969673533515e-06 4.9510694483734933e-06 0.0000000000000000e+00  -9.7882199402939387e-06 8.8651058964343715e-06 0.0000000000000000e+00  -2.0628784124649491e-05 1.3867854133196152e-05 0.0000000000000000e+00  -3.7012433275783372e-05 1.9939599429119822e-05 0.0000000000000000e+00  -5.9993871991117496e-05 2.7052729295159722e-05 0.0000000000000000e+00  -9.0596883609278382e-05 3.5173090349621614e-05 0.0000000000000000e+00  -1.2980818684087405e-04 4.4260009282717932e-05 0.0000000000000000e+00  -1.7857070134250837e-04 5.4265904443119685e-05 0.0000000000000000e+00  -2.3777628798271182e-04 6.5135775259202381e-05 0.0000000000000000e+00  -3.0825795037462507e-04 7.6806659259641652e-05 0.0000000000000000e+00  -3.9078146827553818e-04 8.9207092301560859e-05 0.0000000000000000e+00  -4.8603642774256508e-04 1.0225659503835085e-04 0.0000000000000000e+00  -5.9462659645883047e-04 1.1586520706744012e-04 0.0000000000000000e+00  -7.1705954753615631e-04 1.2993309127136478e-04 0.0000000000000000e+00  -8.5373533466855155e-04 1.4435023179021846e-04 0.0000000000000000e+00  -1.0049338205498682e-03 1.5899624890491676e-04 0.0000000000000000e+00  -1.1707998792716021e-03 1.7374035249122837e-04 0.0000000000000000e+00  -1.3513249948094159e-03 1.8844145243983402e-04 0.0000000000000000e+00  -1.5463225274476699e-03 2.0294843939814018e-04 0.0000000000000000e+00  -1.7553917247056339e-03 2.1710064377292306e-04 0.0000000000000000e+00  -1.9778617644521947e-03 2.3072847697624599e-04 0.0000000000000000e+00  -2.2127006906507997e-03 2.4365426123807747e-04 0.0000000000000000e+00  -2.4583633981403266e-03 2.5569327094824098e-04 0.0000000000000000e+00  -2.7125353635783886e-03 2.6665505122189204e-04 0.0000000000000000e+00  -2.9717010226233522e-03 2.7634516498052522e-04 0.0000000000000000e+00  -3.2304226976664716e-03 2.8456766385090724e-04 0.0000000000000000e+00  -3.4801517741041297e-03 2.9112878725883520e-04 0.0000000000000000e+00  -3.7073020532420288e-03 2.9584264196895563e-04 0.0000000000000000e+00  -3.8901911900570407e-03 2.9853980831772738e-04 0.0000000000000000e+00  -3.9943005160944867e-03 2.9907975918481560e-04 0.0000000000000000e+00  -3.9651275582042794e-03 2.9736733638454645e-04 0.0000000000000000e+00  -3.7177357124872348e-03 2.9337190568627165e-04 0.0000000000000000e+00  -3.1219826231763995e-03 2.8714482480091954e-04 0.0000000000000000e+00  -1.9823711937842193e-03 2.7882568311259786e-04 0.0000000000000000e+00  -1.1505526591378419e-05 2.6861488459902622e-04 0.0000000000000000e+00  3.2038901670143976e-03 2.5663739778693305e-04 0.0000000000000000e+00  8.2458834011308775e-03 2.4237752956210863e-04 0.0000000000000000e+00  1.5919760788994538e-02 2.2234619839549459e-04 0.0000000000000000e+00  0.0000000000000000e+00 -1.6088771043832673e-06 0.0000000000000000e+00  2.1323277024118950e-06 -3.9187784307596286e-07 0.0000000000000000e+00  3.0482982663276005e-06 3.0482982650027910e-06 0.0000000000000000e+00  1.7144418779152337e-06 8.6969588238205413e-06 0.0000000000000000e+00  -2.9792243139539266e-06 1.6543537749921633e-05 0.0000000000000000e+00  -1.2134335312665347e-05 2.6563071884055907e-05 0.0000000000000000e+00  -2.6833225219473061e-05 3.8716343482069996e-05 0.0000000000000000e+00  -4.8133102433117545e-05 5.2950388617349346e-05 0.0000000000000000e+00  -7.7060578140985522e-05 6.9198835692517463e-05 0.0000000000000000e+00  -1.1460571189581358e-04 8.7381744923323407e-05 0.0000000000000000e+00  -1.6171547314349657e-04 1.0740501766086246e-04 0.0000000000000000e+00  -2.1928661870117895e-04 1.2915953928738371e-04 0.0000000000000000e+00  -2.8815798070631085e-04 1.5252018772993366e-04 0.0000000000000000e+00  -3.6910214799863229e-04 1.7734479903064372e-04 0.0000000000000000e+00  -4.6281651264898431e-04 2.0347315715436737e-04 0.0000000000000000e+00  -5.6991363231502046e-04 2.3072606500788070e-04 0.0000000000000000e+00  -6.9091081178901934e-04 2.5890455040451115e-04 0.0000000000000000e+00  -8.2621870610612548e-04 2.8778926058946786e-04 0.0000000000000000e+00  -9.7612854705714171e-04 3.1714009865418567e-04 0.0000000000000000e+00  -1.1407972148116282e-03 3.4669615396746287e-04 0.0000000000000000e+00  -1.3202286788013605e-03 3.7617597522937395e-04 0.0000000000000000e+00  -1.5142490818901367e-03 4.0527823010801946e-04 0.0000000000000000e+00  -1.7224705445357054e-03 4.3368279051034345e-04 0.0000000000000000e+00  -1.9442349700821886e-03 4.6105228176003093e-04 0.0000000000000000e+00  -2.1785226899227513e-03 4.8703414407387345e-04 0.0000000000000000e+00  -2.4238000552795412e-03 5.1126328709885118e-04 0.0000000000000000e+00  -2.6777625761273257e-03 5.3336548880394594e-04 0.0000000000000000e+00  -2.9369023420780420e-03 5.5296181729673456e-04 0.0000000000000000e+00  -3.1957853757801536e-03 5.6967455226596391e-04 0.0000000000000000e+00  -3.4458602743524212e-03 5.8313534493060982e-04 0.0000000000000000e+00  -3.6735276796350225e-03 5.9299662390901466e-04 0.0000000000000000e+00  -3.8570761772277985e-03 5.9894737334038222e-04 0.0000000000000000e+00  -3.9619349249002843e-03 6.0073406393749171e-04 0.0000000000000000e+00  -3.9335179498969182e-03 5.9818616739843085e-04 0.0000000000000000e+00  -3.6867661802424539e-03 5.9124246424027823e-04 0.0000000000000000e+00  -3.0913718256038872e-03 5.7996773706421232e-04 0.0000000000000000e+00  -1.9516356073331291e-03 5.6453587394993262e-04 0.0000000000000000e+00  2.0040029355684490e-05 5.4512490883617919e-04 0.0000000000000000e+00  3.2369812706921812e-03 5.2159576279439093e-04 0.0000000000000000e+00  8.2805717127594075e-03 4.9266367799624255e-04 0.0000000000000000e+00  1.5952855577001036e-02 4.5410010547508318e-04 0.0000000000000000e+00  0.0000000000000000e+00 -5.1766795834602109e-06 0.0000000000000000e+00  4.9510694479431557e-06 -3.4102969677393076e-06 0.0000000000000000e+00  8.6969588202350339e-06 1.7144418783718432e-06 0.0000000000000000e+00  1.0176885660799736e-05 1.0176885661807931e-05 0.0000000000000000e+00  8.2922310570508502e-06 2.1948244448598622e-05 0.0000000000000000e+00  1.9438898683989155e-06 3.6984609683351097e-05 0.0000000000000000e+00  -9.9511237113473627e-06 5.5224318396532703e-05 0.0000000000000000e+00  -2.8452506071456488e-05 7.6587565722141106e-05 0.0000000000000000e+00  -5.4590751440645037e-05 1.0097576019006194e-04 0.0000000000000000e+00  -8.9361109310781483e-05 1.2827052437620860e-04 0.0000000000000000e+00  -1.3371710969304089e-04 1.5833244588216259e-04 0.0000000000000000e+00  -1.8856354612724623e-04 1.9099965148528487e-04 0.0000000000000000e+00  -2.5474886054106051e-04 2.2608627177905967e-04 0.0000000000000000e+00  -3.3305689127007682e-04 2.6338086808697640e-04 0.0000000000000000e+00  -4.2419794605103462e-04 3.0264489707773010e-04 0.0000000000000000e+00  -5.2879914480586905e-04 3.4361129201098442e-04 0.0000000000000000e+00  -6.4739393113856709e-04 3.8598324262754122e-04 0.0000000000000000e+00  -7.8041055126985121e-04 4.2943325926052175e-04 0.0000000000000000e+00  -9.2815909945820829e-04 4.7360260923459826e-04 0.0000000000000000e+00  -1.0908163497899326e-03 5.1810121486745410e-04 0.0000000000000000e+00  -1.2684068972249705e-03 5.6250810161585264e-04 0.0000000000000000e+00  -1.4607778800099583e-03 6.0637248292657155e-04 0.0000000000000000e+00  -1.6675623540704321e-03 6.4921556700940012e-04 0.0000000000000000e+00  -1.8881225845850291e-03 6.9053317411921483e-04 0.0000000000000000e+00  -2.1214580577548778e-03 7.2979926845622030e-04 0.0000000000000000e+00  -2.3660522495088758e-03 7.6647054699354865e-04 0.0000000000000000e+00  -2.6196146294562035e-03 7.9999230198469498e-04 0.0000000000000000e+00  -2.8786464424048908e-03 8.2980589674944713e-04 0.0000000000000000e+00  -3.1377156487842274e-03 8.5535836741944845e-04 0.0000000000000000e+00  -3.3882620584902178e-03 8.7611485808111939e-04 0.0000000000000000e+00  -3.6166619164222178e-03 8.9157472101934971e-04 0.0000000000000000e+00  -3.8011574942681038e-03 9.0129196118688348e-04 0.0000000000000000e+00  -3.9071025300810597e-03 9.0489988399698826e-04 0.0000000000000000e+00  -3.8798001191366867e-03 9.0213765544627767e-04 0.0000000000000000e+00  -3.6340427119384141e-03 8.9287194259577351e-04 0.0000000000000000e+00  -3.0393458186161923e-03 8.7709819893198664e-04 0.0000000000000000e+00  -1.8998398876237826e-03 8.5489090529723363e-04 0.0000000000000000e+00  7.2146162694676697e-05 8.2624703685575771e-04 0.0000000000000000e+00  3.2897033083156657e-03 7.9073428500576429e-04 0.0000000000000000e+00  8.3332295082842560e-03 7.4685318730223482e-04 0.0000000000000000e+00  1.6002480654877253e-02 6.9124045076683822e-04 0.0000000000000000e+00  0.0000000000000000e+00 -1.2113898778248333e-05 0.0000000000000000e+00  8.8651058952162415e-06 -9.7882199400368574e-06 0.0000000000000000e+00  1.6543537750197796e-05 -2.9792243136119701e-06 0.0000000000000000e+00  2.1948244448111635e-05 8.2922310553323102e-06 0.0000000000000000e+00  2.3984210658874323e-05 2.3984210659665801e-05 0.0000000000000000e+00  2.1554050447879537e-05 4.4035770689495791e-05 0.0000000000000000e+00  1.3573712111157201e-05 6.8364211062483149e-05 0.0000000000000000e+00  -1.0195749350077649e-06 9.6863889816225691e-05 0.0000000000000000e+00  -2.3261204652707236e-05 1.2940497313980003e-04 0.0000000000000000e+00  -5.4153215648135106e-05 1.6583186658614580e-04 0.0000000000000000e+00  -9.4657941167851240e-05 2.0596136447828691e-04 0.0000000000000000e+00  -1.4569112427304209e-04 2.4958060305084044e-04 0.0000000000000000e+00  -2.0811441758120092e-04 2.9644490129937859e-04 0.0000000000000000e+00  -2.8272721151886013e-04 3.4627557247328552e-04 0.0000000000000000e+00  -3.7025773880055299e-04 3.9875779483924793e-04 0.0000000000000000e+00  -4.7135338843573126e-04 4.5353863910931454e-04 0.0000000000000000e+00  -5.8657011804328306e-04 5.1022535994737117e-04 0.0000000000000000e+00  -7.1636075449250491e-04 5.6838406820385393e-04 0.0000000000000000e+00  -8.6106177421430051e-04 6.2753890861051785e-04 0.0000000000000000e+00  -1.0208777763918160e-03 6.8717187354670826e-04 0.0000000000000000e+00  -1.1958621655787567e-03 7.4672338753924746e-04 0.0000000000000000e+00  -1.3858913082483658e-03 8.0559379920959386e-04 0.0000000000000000e+00  -1.5906272217876014e-03 8.6314591981064047e-04 0.0000000000000000e+00  -1.8094600388518756e-03 9.1870875314901089e-04 0.0000000000000000e+00  -2.0414150090265443e-03 9.7158257651780043e-04 0.0000000000000000e+00  -2.2849980032514346e-03 1.0210455635901432e-03 0.0000000000000000e+00  -2.5379358859569140e-03 1.0663621957447292e-03 0.0000000000000000e+00  -2.7967401350671860e-03 1.1067937901890091e-03 0.0000000000000000e+00  -3.0559788921241961e-03 1.1416115694746049e-03 0.0000000000000000e+00  -3.3070782926468258e-03 1.1701127598437993e-03 0.0000000000000000e+00  -3.5363822904477772e-03 1.1916401234937615e-03 0.0000000000000000e+00  -3.7220768653007663e-03 1.2056048835952500e-03 0.0000000000000000e+00  -3.8294305657938232e-03 1.2115118125651410e-03 0.0000000000000000e+00  -3.8036304655624941e-03 1.2089827410336218e-03 0.0000000000000000e+00  -3.5593278496308715e-03 1.1977701203817609e-03 0.0000000000000000e+00  -2.9658932100855941e-03 1.1777447181315745e-03 0.0000000000000000e+00  -1.8273577330968720e-03 1.1488309480815083e-03 0.0000000000000000e+00  1.4390755352958795e-04 1.1108528144870842e-03 0.0000000000000000e+00  3.3606555620993126e-03 1.0632559388683155e-03 0.0000000000000000e+00  8.4024846587573733e-03 1.0047237376700595e-03 0.0000000000000000e+00  1.6068058858874527e-02 9.3288235252662324e-04 0.0000000000000000e+00  0.0000000000000000e+00 -2.3516075012459568e-05 0.0000000000000000e+00  1.3867854132114511e-05 -2.0628784122989883e-05 0.0000000000000000e+00  2.6563071883034901e-05 -1.2134335314386477e-05 0.0000000000000000e+00  3.6984609684055971e-05 1.9438898670453327e-06 0.0000000000000000e+00  4.4035770691831901e-05 2.1554050448354110e-05 0.0000000000000000e+00  4.6619974576532304e-05 4.6619974575225563e-05 0.0000000000000000e+00  4.3651781258297130e-05 7.7039563745209266e-05 0.0000000000000000e+00  3.4064796284716175e-05 1.1268309318840443e-04 0.0000000000000000e+00  1.6817761395504322e-05 1.5339140245718052e-04 0.0000000000000000e+00  -9.0996172607507274e-06 1.9897376686608780e-04 0.0000000000000000e+00  -4.4660522685077955e-05 2.4920546028770878e-04 0.0000000000000000e+00  -9.0794340151600312e-05 3.0382508443422591e-04 0.0000000000000000e+00  -1.4837932116643792e-04 3.6253175549481913e-04 0.0000000000000000e+00  -2.1823452530411237e-04 4.2498224702027134e-04 0.0000000000000000e+00  -3.0111097354212424e-04 4.9078819764525273e-04 0.0000000000000000e+00  -3.9768193256517671e-04 5.5951350475613336e-04 0.0000000000000000e+00  -5.0853220512810267e-04 6.3067203951289164e-04 0.0000000000000000e+00  -6.3414620293757336e-04 7.0372583312809471e-04 0.0000000000000000e+00  -7.7489438046149633e-04 7.7808389792851588e-04 0.0000000000000000e+00  -9.3101723052963447e-04 8.5310185858213301e-04 0.0000000000000000e+00  -1.1026053462515574e-03 9.2808257821162007e-04 0.0000000000000000e+00  -1.2895728006231649e-03 1.0022779709861786e-03 0.0000000000000000e+00  -1.4916188859594324e-03 1.0748921980527134e-03 0.0000000000000000e+00  -1.7081694321375537e-03 1.1450864488939374e-03 0.0000000000000000e+00  -1.9382824284676970e-03 1.2119855185408913e-03 0.0000000000000000e+00  -2.1804918581596246e-03 1.2746864054321648e-03 0.0000000000000000e+00  -2.4325460306347025e-03 1.3322691761562943e-03 0.0000000000000000e+00  -2.6909686945569655e-03 1.3838103653448120e-03 0.0000000000000000e+00  -2.9503280260486375e-03 1.4283991794527559e-03 0.0000000000000000e+00  -3.2020343321733529e-03 1.4651566964743049e-03 0.0000000000000000e+00  -3.4323958861588286e-03 1.4932579924680171e-03 0.0000000000000000e+00  -3.6195394288340891e-03 1.5119564929995384e-03 0.0000000000000000e+00  -3.7286487147856905e-03 1.5206085580261237e-03 0.0000000000000000e+00  -3.7048028160379227e-03 1.5186939917526765e-03 0.0000000000000000e+00  -3.4625327446906316e-03 1.5058244767956204e-03 0.0000000000000000e+00  -2.8711018732633393e-03 1.4817268901654865e-03 0.0000000000000000e+00  -1.7344936270915045e-03 1.4461833401270550e-03 0.0000000000000000e+00  2.3484091741687873e-04 1.3989088253930078e-03 0.0000000000000000e+00  3.4493752989953551e-03 1.3393602033568972e-03 0.0000000000000000e+00  8.4882346954562229e-03 1.2665105831009070e-03 0.0000000000000000e+00  1.6149726714198280e-02 1.1786889706099509e-03 0.0000000000000000e+00  0.0000000000000000e+00 -4.0460995306412526e-05 0.0000000000000000e+00  1.9939599429520638e-05 -3.7012433275901333e-05 0.0000000000000000e+00  3.8716343481995484e-05 -2.6833225221198328e-05 0.0000000000000000e+00  5.5224318395619438e-05 -9.9511237143071280e-06 0.0000000000000000e+00  6.8364211061439157e-05 1.3573712112316909e-05 0.0000000000000000e+00  7.7039563742700923e-05 4.3651781261698902e-05 0.0000000000000000e+00  8.0163477764102529e-05 8.0163477768950973e-05 0.0000000000000000e+00  7.6665687108313360e-05 1.2295712959785400e-04 0.0000000000000000e+00  6.5498406040392175e-05 1.7184668051120733e-04 0.0000000000000000e+00  4.5641907362836924e-05 2.2660899151601989e-04 0.0000000000000000e+00  1.6110392695954540e-05 2.8698078881635874e-04 0.0000000000000000e+00  -2.4041584111130756e-05 3.5265533241149742e-04 0.0000000000000000e+00  -7.5712003159403751e-05 4.2327890128650769e-04 0.0000000000000000e+00  -1.3974348066731829e-04 4.9844720618957047e-04 0.0000000000000000e+00  -2.1691450307807303e-04 5.7770185656225615e-04 0.0000000000000000e+00  -3.0792969509658947e-04 6.6052702624369857e-04 0.0000000000000000e+00  -4.1340897879601904e-04 7.4634648220734962e-04 0.0000000000000000e+00  -5.3387538174809273e-04 8.3452116097724094e-04 0.0000000000000000e+00  -6.6974105415525608e-04 9.2434749728680847e-04 0.0000000000000000e+00  -8.2129067755222062e-04 1.0150567278208553e-03 0.0000000000000000e+00  -9.8866075175219601e-04 1.1058154082757563e-03 0.0000000000000000e+00  -1.1718119936236784e-03 1.1957273937594889e-03 0.0000000000000000e+00  -1.3704898709335624e-03 1.2838375402827525e-03 0.0000000000000000e+00  -1.5841644685616119e-03 1.3691373879015411e-03 0.0000000000000000e+00  -1.8119343853680340e-03 1.4505730848382045e-03 0.0000000000000000e+00  -2.0523685385418419e-03 1.5270558042357635e-03 0.0000000000000000e+00  -2.3032421265658911e-03 1.5974748875206210e-03 0.0000000000000000e+00  -2.5610950121024013e-03 1.6607139081612342e-03 0.0000000000000000e+00  -2.8204976453234231e-03 1.7156697610595597e-03 0.0000000000000000e+00  -3.0728455104898195e-03 1.7612746954436505e-03 0.0000000000000000e+00  -3.3044118898597373e-03 1.7965208378051465e-03 0.0000000000000000e+00  -3.4932662651556159e-03 1.8204860681182680e-03 0.0000000000000000e+00  -3.6045131401881655e-03 1.8323589506799116e-03 0.0000000000000000e+00  -3.5831351903504649e-03 1.8314586189291521e-03 0.0000000000000000e+00  -3.3435622055706317e-03 1.8172430331165048e-03 0.00