<?xml version="1.0"?>
<VTKFile type="UnstructuredGrid"  version="0.1"  >
<UnstructuredGrid>
<Piece  NumberOfPoints="1681" NumberOfCells="3200">
<Points>
<DataArray  type="Float64"  NumberOfComponents="3"  format="ascii">0 0 0  0.5 0 0  1 0 0  1.5 0 0  2 0 0  2.5 0 0  3 0 0  3.5 0 0  4 0 0  4.5 0 0  5 0 0  5.5 0 0  6 0 0  6.5 0 0  7 0 0  7.5 0 0  8 0 0  8.5 0 0  9 0 0  9.5 0 0  10 0 0  10.5 0 0  11 0 0  11.5 0 0  12 0 0  12.5 0 0  13 0 0  13.5 0 0  14 0 0  14.5 0 0  15 0 0  15.5 0 0  16 0 0  16.5 0 0  17 0 0  17.5 0 0  18 0 0  18.5 0 0  19 0 0  19.5 0 0  20 0 0  0 0.5 0  0.5 0.5 0  1 0.5 0  1.5 0.5 0  2 0.5 0  2.5 0.5 0  3 0.5 0  3.5 0.5 0  4 0.5 0  4.5 0.5 0  5 0.5 0  5.5 0.5 0  6 0.5 0  6.5 0.5 0  7 0.5 0  7.5 0.5 0  8 0.5 0  8.5 0.5 0  9 0.5 0  9.5 0.5 0  10 0.5 0  10.5 0.5 0  11 0.5 0  11.5 0.5 0  12 0.5 0  12.5 0.5 0  13 0.5 0  13.5 0.5 0  14 0.5 0  14.5 0.5 0  15 0.5 0  15.5 0.5 0  16 0.5 0  16.5 0.5 0  17 0.5 0  17.5 0.5 0  18 0.5 0  18.5 0.5 0  19 0.5 0  19.5 0.5 0  20 0.5 0  0 1 0  0.5 1 0  1 1 0  1.5 1 0  2 1 0  2.5 1 0  3 1 0  3.5 1 0  4 1 0  4.5 1 0  5 1 0  5.5 1 0  6 1 0  6.5 1 0  7 1 0  7.5 1 0  8 1 0  8.5 1 0  9 1 0  9.5 1 0  10 1 0  10.5 1 0  11 1 0  11.5 1 0  12 1 0  12.5 1 0  13 1 0  13.5 1 0  14 1 0  14.5 1 0  15 1 0  15.5 1 0  16 1 0  16.5 1 0  17 1 0  17.5 1 0  18 1 0  18.5 1 0  19 1 0  19.5 1 0  20 1 0  0 1.5 0  0.5 1.5 0  1 1.5 0  1.5 1.5 0  2 1.5 0  2.5 1.5 0  3 1.5 0  3.5 1.5 0  4 1.5 0  4.5 1.5 0  5 1.5 0  5.5 1.5 0  6 1.5 0  6.5 1.5 0  7 1.5 0  7.5 1.5 0  8 1.5 0  8.5 1.5 0  9 1.5 0  9.5 1.5 0  10 1.5 0  10.5 1.5 0  11 1.5 0  11.5 1.5 0  12 1.5 0  12.5 1.5 0  13 1.5 0  13.5 1.5 0  14 1.5 0  14.5 1.5 0  15 1.5 0  15.5 1.5 0  16 1.5 0  16.5 1.5 0  17 1.5 0  17.5 1.5 0  18 1.5 0  18.5 1.5 0  19 1.5 0  19.5 1.5 0  20 1.5 0  0 2 0  0.5 2 0  1 2 0  1.5 2 0  2 2 0  2.5 2 0  3 2 0  3.5 2 0  4 2 0  4.5 2 0  5 2 0  5.5 2 0  6 2 0  6.5 2 0  7 2 0  7.5 2 0  8 2 0  8.5 2 0  9 2 0  9.5 2 0  10 2 0  10.5 2 0  11 2 0  11.5 2 0  12 2 0  12.5 2 0  13 2 0  13.5 2 0  14 2 0  14.5 2 0  15 2 0  15.5 2 0  16 2 0  16.5 2 0  17 2 0  17.5 2 0  18 2 0  18.5 2 0  19 2 0  19.5 2 0  20 2 0  0 2.5 0  0.5 2.5 0  1 2.5 0  1.5 2.5 0  2 2.5 0  2.5 2.5 0  3 2.5 0  3.5 2.5 0  4 2.5 0  4.5 2.5 0  5 2.5 0  5.5 2.5 0  6 2.5 0  6.5 2.5 0  7 2.5 0  7.5 2.5 0  8 2.5 0  8.5 2.5 0  9 2.5 0  9.5 2.5 0  10 2.5 0  10.5 2.5 0  11 2.5 0  11.5 2.5 0  12 2.5 0  12.5 2.5 0  13 2.5 0  13.5 2.5 0  14 2.5 0  14.5 2.5 0  15 2.5 0  15.5 2.5 0  16 2.5 0  16.5 2.5 0  17 2.5 0  17.5 2.5 0  18 2.5 0  18.5 2.5 0  19 2.5 0  19.5 2.5 0  20 2.5 0  0 3 0  0.5 3 0  1 3 0  1.5 3 0  2 3 0  2.5 3 0  3 3 0  3.5 3 0  4 3 0  4.5 3 0  5 3 0  5.5 3 0  6 3 0  6.5 3 0  7 3 0  7.5 3 0  8 3 0  8.5 3 0  9 3 0  9.5 3 0  10 3 0  10.5 3 0  11 3 0  11.5 3 0  12 3 0  12.5 3 0  13 3 0  13.5 3 0  14 3 0  14.5 3 0  15 3 0  15.5 3 0  16 3 0  16.5 3 0  17 3 0  17.5 3 0  18 3 0  18.5 3 0  19 3 0  19.5 3 0  20 3 0  0 3.5 0  0.5 3.5 0  1 3.5 0  1.5 3.5 0  2 3.5 0  2.5 3.5 0  3 3.5 0  3.5 3.5 0  4 3.5 0  4.5 3.5 0  5 3.5 0  5.5 3.5 0  6 3.5 0  6.5 3.5 0  7 3.5 0  7.5 3.5 0  8 3.5 0  8.5 3.5 0  9 3.5 0  9.5 3.5 0  10 3.5 0  10.5 3.5 0  11 3.5 0  11.5 3.5 0  12 3.5 0  12.5 3.5 0  13 3.5 0  13.5 3.5 0  14 3.5 0  14.5 3.5 0  15 3.5 0  15.5 3.5 0  16 3.5 0  16.5 3.5 0  17 3.5 0  17.5 3.5 0  18 3.5 0  18.5 3.5 0  19 3.5 0  19.5 3.5 0  20 3.5 0  0 4 0  0.5 4 0  1 4 0  1.5 4 0  2 4 0  2.5 4 0  3 4 0  3.5 4 0  4 4 0  4.5 4 0  5 4 0  5.5 4 0  6 4 0  6.5 4 0  7 4 0  7.5 4 0  8 4 0  8.5 4 0  9 4 0  9.5 4 0  10 4 0  10.5 4 0  11 4 0  11.5 4 0  12 4 0  12.5 4 0  13 4 0  13.5 4 0  14 4 0  14.5 4 0  15 4 0  15.5 4 0  16 4 0  16.5 4 0  17 4 0  17.5 4 0  18 4 0  18.5 4 0  19 4 0  19.5 4 0  20 4 0  0 4.5 0  0.5 4.5 0  1 4.5 0  1.5 4.5 0  2 4.5 0  2.5 4.5 0  3 4.5 0  3.5 4.5 0  4 4.5 0  4.5 4.5 0  5 4.5 0  5.5 4.5 0  6 4.5 0  6.5 4.5 0  7 4.5 0  7.5 4.5 0  8 4.5 0  8.5 4.5 0  9 4.5 0  9.5 4.5 0  10 4.5 0  10.5 4.5 0  11 4.5 0  11.5 4.5 0  12 4.5 0  12.5 4.5 0  13 4.5 0  13.5 4.5 0  14 4.5 0  14.5 4.5 0  15 4.5 0  15.5 4.5 0  16 4.5 0  16.5 4.5 0  17 4.5 0  17.5 4.5 0  18 4.5 0  18.5 4.5 0  19 4.5 0  19.5 4.5 0  20 4.5 0  0 5 0  0.5 5 0  1 5 0  1.5 5 0  2 5 0  2.5 5 0  3 5 0  3.5 5 0  4 5 0  4.5 5 0  5 5 0  5.5 5 0  6 5 0  6.5 5 0  7 5 0  7.5 5 0  8 5 0  8.5 5 0  9 5 0  9.5 5 0  10 5 0  10.5 5 0  11 5 0  11.5 5 0  12 5 0  12.5 5 0  13 5 0  13.5 5 0  14 5 0  14.5 5 0  15 5 0  15.5 5 0  16 5 0  16.5 5 0  17 5 0  17.5 5 0  18 5 0  18.5 5 0  19 5 0  19.5 5 0  20 5 0  0 5.5 0  0.5 5.5 0  1 5.5 0  1.5 5.5 0  2 5.5 0  2.5 5.5 0  3 5.5 0  3.5 5.5 0  4 5.5 0  4.5 5.5 0  5 5.5 0  5.5 5.5 0  6 5.5 0  6.5 5.5 0  7 5.5 0  7.5 5.5 0  8 5.5 0  8.5 5.5 0  9 5.5 0  9.5 5.5 0  10 5.5 0  10.5 5.5 0  11 5.5 0  11.5 5.5 0  12 5.5 0  12.5 5.5 0  13 5.5 0  13.5 5.5 0  14 5.5 0  14.5 5.5 0  15 5.5 0  15.5 5.5 0  16 5.5 0  16.5 5.5 0  17 5.5 0  17.5 5.5 0  18 5.5 0  18.5 5.5 0  19 5.5 0  19.5 5.5 0  20 5.5 0  0 6 0  0.5 6 0  1 6 0  1.5 6 0  2 6 0  2.5 6 0  3 6 0  3.5 6 0  4 6 0  4.5 6 0  5 6 0  5.5 6 0  6 6 0  6.5 6 0  7 6 0  7.5 6 0  8 6 0  8.5 6 0  9 6 0  9.5 6 0  10 6 0  10.5 6 0  11 6 0  11.5 6 0  12 6 0  12.5 6 0  13 6 0  13.5 6 0  14 6 0  14.5 6 0  15 6 0  15.5 6 0  16 6 0  16.5 6 0  17 6 0  17.5 6 0  18 6 0  18.5 6 0  19 6 0  19.5 6 0  20 6 0  0 6.5 0  0.5 6.5 0  1 6.5 0  1.5 6.5 0  2 6.5 0  2.5 6.5 0  3 6.5 0  3.5 6.5 0  4 6.5 0  4.5 6.5 0  5 6.5 0  5.5 6.5 0  6 6.5 0  6.5 6.5 0  7 6.5 0  7.5 6.5 0  8 6.5 0  8.5 6.5 0  9 6.5 0  9.5 6.5 0  10 6.5 0  10.5 6.5 0  11 6.5 0  11.5 6.5 0  12 6.5 0  12.5 6.5 0  13 6.5 0  13.5 6.5 0  14 6.5 0  14.5 6.5 0  15 6.5 0  15.5 6.5 0  16 6.5 0  16.5 6.5 0  17 6.5 0  17.5 6.5 0  18 6.5 0  18.5 6.5 0  19 6.5 0  19.5 6.5 0  20 6.5 0  0 7 0  0.5 7 0  1 7 0  1.5 7 0  2 7 0  2.5 7 0  3 7 0  3.5 7 0  4 7 0  4.5 7 0  5 7 0  5.5 7 0  6 7 0  6.5 7 0  7 7 0  7.5 7 0  8 7 0  8.5 7 0  9 7 0  9.5 7 0  10 7 0  10.5 7 0  11 7 0  11.5 7 0  12 7 0  12.5 7 0  13 7 0  13.5 7 0  14 7 0  14.5 7 0  15 7 0  15.5 7 0  16 7 0  16.5 7 0  17 7 0  17.5 7 0  18 7 0  18.5 7 0  19 7 0  19.5 7 0  20 7 0  0 7.5 0  0.5 7.5 0  1 7.5 0  1.5 7.5 0  2 7.5 0  2.5 7.5 0  3 7.5 0  3.5 7.5 0  4 7.5 0  4.5 7.5 0  5 7.5 0  5.5 7.5 0  6 7.5 0  6.5 7.5 0  7 7.5 0  7.5 7.5 0  8 7.5 0  8.5 7.5 0  9 7.5 0  9.5 7.5 0  10 7.5 0  10.5 7.5 0  11 7.5 0  11.5 7.5 0  12 7.5 0  12.5 7.5 0  13 7.5 0  13.5 7.5 0  14 7.5 0  14.5 7.5 0  15 7.5 0  15.5 7.5 0  16 7.5 0  16.5 7.5 0  17 7.5 0  17.5 7.5 0  18 7.5 0  18.5 7.5 0  19 7.5 0  19.5 7.5 0  20 7.5 0  0 8 0  0.5 8 0  1 8 0  1.5 8 0  2 8 0  2.5 8 0  3 8 0  3.5 8 0  4 8 0  4.5 8 0  5 8 0  5.5 8 0  6 8 0  6.5 8 0  7 8 0  7.5 8 0  8 8 0  8.5 8 0  9 8 0  9.5 8 0  10 8 0  10.5 8 0  11 8 0  11.5 8 0  12 8 0  12.5 8 0  13 8 0  13.5 8 0  14 8 0  14.5 8 0  15 8 0  15.5 8 0  16 8 0  16.5 8 0  17 8 0  17.5 8 0  18 8 0  18.5 8 0  19 8 0  19.5 8 0  20 8 0  0 8.5 0  0.5 8.5 0  1 8.5 0  1.5 8.5 0  2 8.5 0  2.5 8.5 0  3 8.5 0  3.5 8.5 0  4 8.5 0  4.5 8.5 0  5 8.5 0  5.5 8.5 0  6 8.5 0  6.5 8.5 0  7 8.5 0  7.5 8.5 0  8 8.5 0  8.5 8.5 0  9 8.5 0  9.5 8.5 0  10 8.5 0  10.5 8.5 0  11 8.5 0  11.5 8.5 0  12 8.5 0  12.5 8.5 0  13 8.5 0  13.5 8.5 0  14 8.5 0  14.5 8.5 0  15 8.5 0  15.5 8.5 0  16 8.5 0  16.5 8.5 0  17 8.5 0  17.5 8.5 0  18 8.5 0  18.5 8.5 0  19 8.5 0  19.5 8.5 0  20 8.5 0  0 9 0  0.5 9 0  1 9 0  1.5 9 0  2 9 0  2.5 9 0  3 9 0  3.5 9 0  4 9 0  4.5 9 0  5 9 0  5.5 9 0  6 9 0  6.5 9 0  7 9 0  7.5 9 0  8 9 0  8.5 9 0  9 9 0  9.5 9 0  10 9 0  10.5 9 0  11 9 0  11.5 9 0  12 9 0  12.5 9 0  13 9 0  13.5 9 0  14 9 0  14.5 9 0  15 9 0  15.5 9 0  16 9 0  16.5 9 0  17 9 0  17.5 9 0  18 9 0  18.5 9 0  19 9 0  19.5 9 0  20 9 0  0 9.5 0  0.5 9.5 0  1 9.5 0  1.5 9.5 0  2 9.5 0  2.5 9.5 0  3 9.5 0  3.5 9.5 0  4 9.5 0  4.5 9.5 0  5 9.5 0  5.5 9.5 0  6 9.5 0  6.5 9.5 0  7 9.5 0  7.5 9.5 0  8 9.5 0  8.5 9.5 0  9 9.5 0  9.5 9.5 0  10 9.5 0  10.5 9.5 0  11 9.5 0  11.5 9.5 0  12 9.5 0  12.5 9.5 0  13 9.5 0  13.5 9.5 0  14 9.5 0  14.5 9.5 0  15 9.5 0  15.5 9.5 0  16 9.5 0  16.5 9.5 0  17 9.5 0  17.5 9.5 0  18 9.5 0  18.5 9.5 0  19 9.5 0  19.5 9.5 0  20 9.5 0  0 10 0  0.5 10 0  1 10 0  1.5 10 0  2 10 0  2.5 10 0  3 10 0  3.5 10 0  4 10 0  4.5 10 0  5 10 0  5.5 10 0  6 10 0  6.5 10 0  7 10 0  7.5 10 0  8 10 0  8.5 10 0  9 10 0  9.5 10 0  10 10 0  10.5 10 0  11 10 0  11.5 10 0  12 10 0  12.5 10 0  13 10 0  13.5 10 0  14 10 0  14.5 10 0  15 10 0  15.5 10 0  16 10 0  16.5 10 0  17 10 0  17.5 10 0  18 10 0  18.5 10 0  19 10 0  19.5 10 0  20 10 0  0 10.5 0  0.5 10.5 0  1 10.5 0  1.5 10.5 0  2 10.5 0  2.5 10.5 0  3 10.5 0  3.5 10.5 0  4 10.5 0  4.5 10.5 0  5 10.5 0  5.5 10.5 0  6 10.5 0  6.5 10.5 0  7 10.5 0  7.5 10.5 0  8 10.5 0  8.5 10.5 0  9 10.5 0  9.5 10.5 0  10 10.5 0  10.5 10.5 0  11 10.5 0  11.5 10.5 0  12 10.5 0  12.5 10.5 0  13 10.5 0  13.5 10.5 0  14 10.5 0  14.5 10.5 0  15 10.5 0  15.5 10.5 0  16 10.5 0  16.5 10.5 0  17 10.5 0  17.5 10.5 0  18 10.5 0  18.5 10.5 0  19 10.5 0  19.5 10.5 0  20 10.5 0  0 11 0  0.5 11 0  1 11 0  1.5 11 0  2 11 0  2.5 11 0  3 11 0  3.5 11 0  4 11 0  4.5 11 0  5 11 0  5.5 11 0  6 11 0  6.5 11 0  7 11 0  7.5 11 0  8 11 0  8.5 11 0  9 11 0  9.5 11 0  10 11 0  10.5 11 0  11 11 0  11.5 11 0  12 11 0  12.5 11 0  13 11 0  13.5 11 0  14 11 0  14.5 11 0  15 11 0  15.5 11 0  16 11 0  16.5 11 0  17 11 0  17.5 11 0  18 11 0  18.5 11 0  19 11 0  19.5 11 0  20 11 0  0 11.5 0  0.5 11.5 0  1 11.5 0  1.5 11.5 0  2 11.5 0  2.5 11.5 0  3 11.5 0  3.5 11.5 0  4 11.5 0  4.5 11.5 0  5 11.5 0  5.5 11.5 0  6 11.5 0  6.5 11.5 0  7 11.5 0  7.5 11.5 0  8 11.5 0  8.5 11.5 0  9 11.5 0  9.5 11.5 0  10 11.5 0  10.5 11.5 0  11 11.5 0  11.5 11.5 0  12 11.5 0  12.5 11.5 0  13 11.5 0  13.5 11.5 0  14 11.5 0  14.5 11.5 0  15 11.5 0  15.5 11.5 0  16 11.5 0  16.5 11.5 0  17 11.5 0  17.5 11.5 0  18 11.5 0  18.5 11.5 0  19 11.5 0  19.5 11.5 0  20 11.5 0  0 12 0  0.5 12 0  1 12 0  1.5 12 0  2 12 0  2.5 12 0  3 12 0  3.5 12 0  4 12 0  4.5 12 0  5 12 0  5.5 12 0  6 12 0  6.5 12 0  7 12 0  7.5 12 0  8 12 0  8.5 12 0  9 12 0  9.5 12 0  10 12 0  10.5 12 0  11 12 0  11.5 12 0  12 12 0  12.5 12 0  13 12 0  13.5 12 0  14 12 0  14.5 12 0  
[...]
<PointData  Vectors="f_5173-0"> 
<DataArray  type="Float64"  Name="f_5173-0"  NumberOfComponents="3" format="ascii">0.0000000000000000e+00 0.0000000000000000e+00 0.0000000000000000e+00  -1.1155498090979569e-06 0.0000000000000000e+00 0.0000000000000000e+00  -5.6452707540779486e-06 0.0000000000000000e+00 0.0000000000000000e+00  -1.7974102097284472e-05 0.0000000000000000e+00 0.0000000000000000e+00  -4.1961851319118221e-05 0.0000000000000000e+00 0.0000000000000000e+00  -8.1397128427505901e-05 0.0000000000000000e+00 0.0000000000000000e+00  -1.4000523798524947e-04 0.0000000000000000e+00 0.0000000000000000e+00  -2.2142653635294531e-04 0.0000000000000000e+00 0.0000000000000000e+00  -3.2919362592876512e-04 0.0000000000000000e+00 0.0000000000000000e+00  -4.6670752628509478e-04 0.0000000000000000e+00 0.0000000000000000e+00  -6.3721175454697963e-04 0.0000000000000000e+00 0.0000000000000000e+00  -8.4376335563375680e-04 0.0000000000000000e+00 0.0000000000000000e+00  -1.0891997651479718e-03 0.0000000000000000e+00 0.0000000000000000e+00  -1.3760999626000051e-03 0.0000000000000000e+00 0.0000000000000000e+00  -1.7067376557707902e-03 0.0000000000000000e+00 0.0000000000000000e+00  -2.0830231299171788e-03 0.0000000000000000e+00 0.0000000000000000e+00  -2.5064287422081203e-03 0.0000000000000000e+00 0.0000000000000000e+00  -2.9778906304975586e-03 0.0000000000000000e+00 0.0000000000000000e+00  -3.4976757659178049e-03 0.0000000000000000e+00 0.0000000000000000e+00  -4.0651986816599307e-03 0.0000000000000000e+00 0.0000000000000000e+00  -4.6787656795161973e-03 0.0000000000000000e+00 0.0000000000000000e+00  -5.3352156531773333e-03 0.0000000000000000e+00 0.0000000000000000e+00  -6.0294155055072626e-03 0.0000000000000000e+00 0.0000000000000000e+00  -6.7535542106493254e-03 0.0000000000000000e+00 0.0000000000000000e+00  -7.4961628165482611e-03 0.0000000000000000e+00 0.0000000000000000e+00  -8.2407683341852254e-03 0.0000000000000000e+00 0.0000000000000000e+00  -8.9640681144892657e-03 0.0000000000000000e+00 0.0000000000000000e+00  -9.6334888949216723e-03 0.0000000000000000e+00 0.0000000000000000e+00  -1.0203972211597925e-02 0.0000000000000000e+00 0.0000000000000000e+00  -1.0613805853152971e-02 0.0000000000000000e+00 0.0000000000000000e+00  -1.0779298546714609e-02 0.0000000000000000e+00 0.0000000000000000e+00  -1.0588068191555477e-02 0.0000000000000000e+00 0.0000000000000000e+00  -9.8906736558741805e-03 0.0000000000000000e+00 0.0000000000000000e+00  -8.4902494168460716e-03 0.0000000000000000e+00 0.0000000000000000e+00  -6.1296720914265149e-03 0.0000000000000000e+00 0.0000000000000000e+00  -2.4755501709206331e-03 0.0000000000000000e+00 0.0000000000000000e+00  2.9020983554636785e-03 0.0000000000000000e+00 0.0000000000000000e+00  1.0556383833743120e-02 0.0000000000000000e+00 0.0000000000000000e+00  2.1199668781387997e-02 0.0000000000000000e+00 0.0000000000000000e+00  3.5756163585005135e-02 0.0000000000000000e+00 0.0000000000000000e+00  5.5453143747453013e-02 0.0000000000000000e+00 0.0000000000000000e+00  0.0000000000000000e+00 -1.1155498094013150e-06 0.0000000000000000e+00  1.3291623227282840e-06 1.3291623230635210e-06 0.0000000000000000e+00  -1.3980848458380184e-06 7.4016527694655648e-06 0.0000000000000000e+00  -1.1842525105989333e-05 1.7169937859887578e-05 0.0000000000000000e+00  -3.3901585718648760e-05 3.0713579397602577e-05 0.0000000000000000e+00  -7.1395469281615171e-05 4.8019110353673000e-05 0.0000000000000000e+00  -1.2806133008002422e-04 6.9022951450107317e-05 0.0000000000000000e+00  -2.0754467250763117e-04 9.3632186448479717e-05 0.0000000000000000e+00  -3.1338171650534648e-04 1.2173057685663332e-04 0.0000000000000000e+00  -4.4897728457085427e-04 1.5317922652030743e-04 0.0000000000000000e+00  -6.1757947695158960e-04 1.8781551162252641e-04 0.0000000000000000e+00  -8.2225093619561675e-04 2.2545144773326352e-04 0.0000000000000000e+00  -1.0658358164862881e-03 2.6587187690678817e-04 0.0000000000000000e+00  -1.3509209864023537e-03 3.0883262780045901e-04 0.0000000000000000e+00  -1.6797892263274319e-03 3.5405874163124061e-04 0.0000000000000000e+00  -2.0543610577540175e-03 4.0124284718141216e-04 0.0000000000000000e+00  -2.4761201820548834e-03 4.5004377368356509e-04 0.0000000000000000e+00  -2.9460150923840021e-03 5.0008550145743931e-04 0.0000000000000000e+00  -3.4643259815912942e-03 5.5095656282300165e-04 0.0000000000000000e+00  -4.0304812716416769e-03 6.0221001932317538e-04 0.0000000000000000e+00  -4.6428015594736039e-03 6.5336415401894194e-04 0.0000000000000000e+00  -5.2981401134218004e-03 7.0390402830125336e-04 0.0000000000000000e+00  -5.9913778954767500e-03 7.5328405837252871e-04 0.0000000000000000e+00  -6.7147171631789957e-03 8.0093176335766598e-04 0.0000000000000000e+00  -7.4567009563342420e-03 8.4625281845641964e-04 0.0000000000000000e+00  -8.2008664309034598e-03 8.8863750468458444e-04 0.0000000000000000e+00  -8.9239186599413267e-03 9.2746857199529052e-04 0.0000000000000000e+00  -9.5932890934198167e-03 9.6213041596088190e-04 0.0000000000000000e+00  -1.0163920348829193e-02 9.9201930387413659e-04 0.0000000000000000e+00  -1.0574096906446839e-02 1.0165541774815590e-03 0.0000000000000000e+00  -1.0740118647863757e-02 1.0351873227621669e-03 0.0000000000000000e+00  -1.0549587047011600e-02 1.0474139675529588e-03 0.0000000000000000e+00  -9.8530331218022564e-03 1.0527797000067188e-03 0.0000000000000000e+00  -8.4535449293237277e-03 1.0508845631127506e-03 0.0000000000000000e+00  -6.0939213832119929e-03 1.0413828294889983e-03 0.0000000000000000e+00  -2.4406408700849737e-03 1.0239777117449966e-03 0.0000000000000000e+00  2.9364912318872744e-03 9.9840965048001188e-04 0.0000000000000000e+00  1.0590898963704583e-02 9.6442935435828256e-04 0.0000000000000000e+00  2.1235196908568899e-02 9.2169956807396916e-04 0.0000000000000000e+00  3.5792054738550003e-02 8.6931518378150353e-04 0.0000000000000000e+00  5.5468220929919945e-02 8.0342082157619434e-04 0.0000000000000000e+00  0.0000000000000000e+00 -5.6452707565505589e-06 0.0000000000000000e+00  7.4016527694532218e-06 -1.3980848454656475e-06 0.0000000000000000e+00  1.0553631004327120e-05 1.0553631003721888e-05 0.0000000000000000e+00  5.9289381945709912e-06 3.0129182103538008e-05 0.0000000000000000e+00  -1.0311582673780812e-05 5.7293248457711350e-05 0.0000000000000000e+00  -4.1980163154830298e-05 9.1965467485953314e-05 0.0000000000000000e+00  -9.2820563980569191e-05 1.3401630658194653e-04 0.0000000000000000e+00  -1.6648749935292765e-04 1.8326778514962504e-04 0.0000000000000000e+00  -2.6652737263993721e-04 2.3949484692607580e-04 0.0000000000000000e+00  -3.9635670648172685e-04 3.0242526898449347e-04 0.0000000000000000e+00  -5.5923752211401400e-04 3.7173802717648940e-04 0.0000000000000000e+00  -7.5824913113435610e-04 4.4706062597836321e-04 0.0000000000000000e+00  -9.9625545261873994e-04 5.2796586416393174e-04 0.0000000000000000e+00  -1.2758664206528787e-03 6.1396837667526064e-04 0.0000000000000000e+00  -1.5993912659050997e-03 7.0452120521282443e-04 0.0000000000000000e+00  -1.9687803140155283e-03 7.9901261141519060e-04 0.0000000000000000e+00  -2.3855502721256143e-03 8.9676333899258321e-04 0.0000000000000000e+00  -2.8506855536122658e-03 9.9702454071110328e-04 0.0000000000000000e+00  -3.3645047456455105e-03 1.0989766036968145e-03 0.0000000000000000e+00  -3.9264765243434471e-03 1.2017291272948941e-03 0.0000000000000000e+00  -4.5349627911241636e-03 1.3043223272871181e-03 0.0000000000000000e+00  -5.1868581450621636e-03 1.4057301553922086e-03 0.0000000000000000e+00  -5.8770836526946370e-03 1.5048654274954795e-03 0.0000000000000000e+00  -6.5978789655171668e-03 1.6005872422454311e-03 0.0000000000000000e+00  -7.3378201025327897e-03 1.6917109332134346e-03 0.0000000000000000e+00  -8.0804708932833893e-03 1.7770207223772110e-03 0.0000000000000000e+00  -8.8025547576475530e-03 1.8552851178328142e-03 0.0000000000000000e+00  -9.4715110895368815e-03 1.9252749144645425e-03 0.0000000000000000e+00  -1.0042277994342466e-02 1.9857834077553907e-03 0.0000000000000000e+00  -1.0453121001368774e-02 2.0356481238832055e-03 0.0000000000000000e+00  -1.0620304652149731e-02 2.0737730231999893e-03 0.0000000000000000e+00  -1.0431376580378897e-02 2.0991497785059271e-03 0.0000000000000000e+00  -9.7367927728360393e-03 2.1108763808858795e-03 0.0000000000000000e+00  -8.3395411452677863e-03 2.1081709102271896e-03 0.0000000000000000e+00  -5.9822895924733265e-03 2.0903774234882514e-03 0.0000000000000000e+00  -2.3313476194647530e-03 2.0569581025741855e-03 0.0000000000000000e+00  3.0436877382361261e-03 2.0074562455730731e-03 0.0000000000000000e+00  1.0696454355764043e-02 1.9413832086592629e-03 0.0000000000000000e+00  2.1339600060069096e-02 1.8578847397616356e-03 0.0000000000000000e+00  3.5894929714015145e-02 1.7547729440785145e-03 0.0000000000000000e+00  5.5566027936487093e-02 1.6259839289070571e-03 0.0000000000000000e+00  0.0000000000000000e+00 -1.7974102097493740e-05 0.0000000000000000e+00  1.7169937859765188e-05 -1.1842525103434133e-05 0.0000000000000000e+00  3.0129182100796552e-05 5.9289381945671203e-06 0.0000000000000000e+00  3.5241762118184218e-05 3.5241762118425941e-05 0.0000000000000000e+00  2.8717069904008139e-05 7.5991205892236377e-05 0.0000000000000000e+00  6.7554601028585156e-06 1.2802820017615560e-04 0.0000000000000000e+00  -3.4387380893102928e-05 1.9114439070342079e-04 0.0000000000000000e+00  -9.8373999799426939e-05 2.6506927573787664e-04 0.0000000000000000e+00  -1.8876380123442844e-04 3.4946765234251047e-04 0.0000000000000000e+00  -3.0899087267526320e-04 4.4393623928857818e-04 0.0000000000000000e+00  -4.6233944356349814e-04 5.4799958233253015e-04 0.0000000000000000e+00  -6.5191598750097583e-04 6.6110537737455732e-04 0.0000000000000000e+00  -8.8061686378887037e-04 7.8261939053666791e-04 0.0000000000000000e+00  -1.1510899649643214e-03 9.1182020131856732e-04 0.0000000000000000e+00  -1.4656881047411031e-03 1.0478940251414737e-03 0.0000000000000000e+00  -1.8264107573432646e-03 1.1899298929555384e-03 0.0000000000000000e+00  -2.2348290913528929e-03 1.3369154871202759e-03 0.0000000000000000e+00  -2.6919868188356971e-03 1.4877339583226961e-03 0.0000000000000000e+00  -3.1982659327157454e-03 1.6411620766662047e-03 0.0000000000000000e+00  -3.7532016043001766e-03 1.7958700992236408e-03 0.0000000000000000e+00  -4.3552239826004585e-03 1.9504237617074553e-03 0.0000000000000000e+00  -5.0012959831770547e-03 2.1032888189563897e-03 0.0000000000000000e+00  -5.6864050106511981e-03 2.2528385600410193e-03 0.0000000000000000e+00  -6.4028526649719400e-03 2.3973647008726528e-03 0.0000000000000000e+00  -7.1392697734717113e-03 2.5350919983227085e-03 0.0000000000000000e+00  -7.8792648019700168e-03 2.6641968224979098e-03 0.0000000000000000e+00  -8.5995924171221351e-03 2.7828297540028846e-03 0.0000000000000000e+00  -9.2677066004437994e-03 2.8891420280868552e-03 0.0000000000000000e+00  -9.8385402224336772e-03 2.9813153190412908e-03 0.0000000000000000e+00  -1.0250330856283603e-02 3.0575939422910338e-03 0.0000000000000000e+00  -1.0419289853528448e-02 3.1163180467451935e-03 0.0000000000000000e+00  -1.0232884349926280e-02 3.1559557574820387e-03 0.0000000000000000e+00  -9.5414608962625207e-03 3.1751314192551244e-03 0.0000000000000000e+00  -8.1478680081766876e-03 3.1726457849440880e-03 0.0000000000000000e+00  -5.7946048249113875e-03 3.1474813482043596e-03 0.0000000000000000e+00  -2.1477890130276430e-03 3.0987799054138462e-03 0.0000000000000000e+00  3.2231724599179707e-03 3.0257649628665285e-03 0.0000000000000000e+00  1.0872025500969948e-02 2.9275492719241423e-03 0.0000000000000000e+00  2.1511216200931920e-02 2.8027064475828335e-03 0.0000000000000000e+00  3.6061496205469876e-02 2.6484195850056077e-03 0.0000000000000000e+00  5.5723792602798743e-02 2.4591940996730012e-03 0.0000000000000000e+00  0.0000000000000000e+00 -4.1961851315979815e-05 0.0000000000000000e+00  3.0713579396455580e-05 -3.3901585717380561e-05 0.0000000000000000e+00  5.7293248457380038e-05 -1.0311582674926722e-05 0.0000000000000000e+00  7.5991205894115693e-05 2.8717069898952494e-05 0.0000000000000000e+00  8.3032212752815501e-05 8.3032212750887952e-05 0.0000000000000000e+00  7.4625617900876039e-05 1.5242413265113315e-04 0.0000000000000000e+00  4.7025214102468757e-05 2.3661096563925736e-04 0.0000000000000000e+00  -3.4410318742514544e-06 3.3523287725361126e-04 0.0000000000000000e+00  -8.0348570620525098e-05 4.4784728676833073e-04 0.0000000000000000e+00  -1.8715410274817990e-04 5.7392345487907543e-04 0.0000000000000000e+00  -3.2717134602360090e-04 7.1283626920210581e-04 0.0000000000000000e+00  -5.0354352307319886e-04 8.6385941034992778e-04 0.0000000000000000e+00  -7.1921136352418188e-04 1.0261581371618074e-03 0.0000000000000000e+00  -9.7687501516578105e-04 1.1987819494339766e-03 0.0000000000000000e+00  -1.2789475400693578e-03 1.3806574175389448e-03 0.0000000000000000e+00  -1.6274965554244427e-03 1.5705815084963487e-03 0.0000000000000000e+00  -2.0241689143031707e-03 1.7672157825413474e-03 0.0000000000000000e+00  -2.4700909001110381e-03 1.9690818800916447e-03 0.0000000000000000e+00  -2.9657329609161414e-03 2.1745587638695358e-03 0.0000000000000000e+00  -3.5107232099535353e-03 2.3818822222703203e-03 0.0000000000000000e+00  -4.1035873923773968e-03 2.5891471738298333e-03 0.0000000000000000e+00  -4.7413843730764521e-03 2.7943133323610264e-03 0.0000000000000000e+00  -5.4191950721346289e-03 2.9952147906174191e-03 0.0000000000000000e+00  -6.1294089044631539e-03 3.1895740460181048e-03 0.0000000000000000e+00  -6.8607351061926126e-03 3.3750209124124393e-03 0.0000000000000000e+00  -7.5968470859775396e-03 3.5491166220257423e-03 0.0000000000000000e+00  -8.3145467107460010e-03 3.7093832049286818e-03 0.0000000000000000e+00  -8.9813131190969921e-03 3.8533379230161150e-03 0.0000000000000000e+00  -9.5520782143692067e-03 3.9785321158236015e-03 0.0000000000000000e+00  -9.9650488996242438e-03 4.0825932689382361e-03 0.0000000000000000e+00  -1.0136373389332350e-02 4.1632684168805001e-03 0.0000000000000000e+00  -9.9534216298370910e-03 4.2184660816588435e-03 0.0000000000000000e+00  -9.2664090611607637e-03 4.2462926777183264e-03 0.0000000000000000e+00  -7.8780221014359258e-03 4.2450773299138175e-03 0.0000000000000000e+00  -5.5305751212358844e-03 4.2133755911769452e-03 0.0000000000000000e+00  -1.8899981895835990e-03 4.1499361851233636e-03 0.0000000000000000e+00  3.4744471355983809e-03 4.0536036136065495e-03 0.0000000000000000e+00  1.1116513646325916e-02 3.9231125676283934e-03 0.0000000000000000e+00  2.1748334475798110e-02 3.7567167813349722e-03 0.0000000000000000e+00  3.6289793965532828e-02 3.5516300715507571e-03 0.0000000000000000e+00  5.5940586512125537e-02 3.3034646284720633e-03 0.0000000000000000e+00  0.0000000000000000e+00 -8.1397128422181262e-05 0.0000000000000000e+00  4.8019110355168778e-05 -7.1395469281009699e-05 0.0000000000000000e+00  9.1965467485454879e-05 -4.1980163159840132e-05 0.0000000000000000e+00  1.2802820017672318e-04 6.7554600986927381e-06 0.0000000000000000e+00  1.5242413265020122e-04 7.4625617900329980e-05 0.0000000000000000e+00  1.6136714783479447e-04 1.6136714783340479e-04 0.0000000000000000e+00  1.5110779648612639e-04 2.6663070288041014e-04 0.0000000000000000e+00  1.1796273118599208e-04 3.8997323410804691e-04 0.0000000000000000e+00  5.8337319938631449e-05 5.3085124932241746e-04 0.0000000000000000e+00  -3.1252527779598127e-05 6.8861347164170001e-04 0.0000000000000000e+00  -1.5415671768564642e-04 8.6249263539831423e-04 0.0000000000000000e+00  -3.1356407274253574e-04 1.0515965527548845e-03 0.0000000000000000e+00  -5.1247086208924613e-04 1.2548987069549899e-03 0.0000000000000000e+00  -7.5364308463112114e-04 1.4712286817000443e-03 0.0000000000000000e+00  -1.0395701281839223e-03 1.6992627801623345e-03 0.0000000000000000e+00  -1.3724063091363700e-03 1.9375152363598125e-03 0.0000000000000000e+00  -1.7538951311650980e-03 2.1843304770542376e-03 0.0000000000000000e+00  -2.1852686777534725e-03 2.4378769515716187e-03 0.0000000000000000e+00  -2.6671111053707722e-03 2.6961431056194362e-03 0.0000000000000000e+00  -3.1991704062059706e-03 2.9569361291527786e-03 0.0000000000000000e+00  -3.7800960897121445e-03 3.2178841516968685e-03 0.0000000000000000e+00  -4.4070717991219832e-03 3.4764425834072116e-03 0.0000000000000000e+00  -5.0753007717444596e-03 3.7299052975231116e-03 0.0000000000000000e+00  -5.7772882128928364e-03 3.9754213065339361e-03 0.0000000000000000e+00  -6.5018480226255336e-03 4.2100174861767958e-03 0.0000000000000000e+00  -7.2327421260247856e-03 4.4306277304430848e-03 0.0000000000000000e+00  -7.9468394968477338e-03 4.6341286575394850e-03 0.0000000000000000e+00  -8.6116597237236043e-03 4.8173816105051758e-03 0.0000000000000000e+00  -9.1821436067056617e-03 4.9772801841374108e-03 0.0000000000000000e+00  -9.5964712641098526e-03 5.1108018355824573e-03 0.0000000000000000e+00  -9.7707255961865750e-03 5.2150612629689626e-03 0.0000000000000000e+00  -9.5921717953339897e-03 5.2873620999278215e-03 0.0000000000000000e+00  -8.9108830887760365e-03 5.3252419505784940e-03 0.0000000000000000e+00  -7.5293726906459340e-03 5.3265036488511957e-03 0.0000000000000000e+00  -5.1897646289336945e-03 5.2892224984506684e-03 0.0000000000000000e+00  -1.5578078862595393e-03 5.2117147369350105e-03 0.0000000000000000e+00  3.7973609857960880e-03 5.0924467561729424e-03 0.0000000000000000e+00  1.1429489405566819e-02 4.9298603141958476e-03 0.0000000000000000e+00  2.2050486125397905e-02 4.7220948047383329e-03 0.0000000000000000e+00  3.6579789638129440e-02 4.4666203385175119e-03 0.0000000000000000e+00  5.6216883160404872e-02 4.1598518376961338e-03 0.0000000000000000e+00  0.0000000000000000e+00 -1.4000523798342036e-04 0.0000000000000000e+00  6.9022951449970260e-05 -1.2806133007829394e-04 0.0000000000000000e+00  1.3401630657902113e-04 -9.2820563984129169e-05 0.0000000000000000e+00  1.9114439070125675e-04 -3.4387380895175868e-05 0.0000000000000000e+00  2.3661096563801960e-04 4.7025214100589164e-05 0.0000000000000000e+00  2.6663070288005067e-04 1.5110779648482665e-04 0.0000000000000000e+00  2.7745024321671402e-04 2.7745024321870759e-04 0.0000000000000000e+00  2.6537400355169650e-04 4.2553363614418959e-04 0.0000000000000000e+00  2.2678596856144816e-04 5.9472181045492451e-04 0.0000000000000000e+00  1.5817078084336632e-04 7.8425208229147446e-04 0.0000000000000000e+00  5.6136539806679431e-05 9.9322498619715109e-04 0.0000000000000000e+00  -8.2559133163599783e-05 1.2205931476964719e-03 0.0000000000000000e+00  -2.6097834155781608e-04 1.4651495570182200e-03 0.0000000000000000e+00  -4.8196572415502322e-04 1.7255155884825521e-03 0.0000000000000000e+00  -7.4810238463347302e-04 2.0001291739254702e-03 0.0000000000000000e+00  -1.0616473812061363e-03 2.2872336037893814e-03 0.0000000000000000e+00  -1.4244615477259190e-03 2.5848674994966916e-03 0.0000000000000000e+00  -1.8379059908386142e-03 2.8908565742129066e-03 0.0000000000000000e+00  -2.3027041585941066e-03 3.2028078722787208e-03 0.0000000000000000e+00  -2.8187515804556106e-03 3.5181072452766067e-03 0.0000000000000000e+00  -3.3848508667810007e-03 3.8339208779440788e-03 0.0000000000000000e+00  -3.9983409383562950e-03 4.1472017104046376e-03 0.0000000000000000e+00  -4.6545783746600178e-03 4.4547016036749253e-03 0.0000000000000000e+00  -5.3462149682384948e-03 4.7529900481198496e-03 0.0000000000000000e+00  -6.0621989941345572e-03 5.0384801026591517e-03 0.0000000000000000e+00  -6.7864085825157473e-03 5.3074620562728629e-03 0.0000000000000000e+00  -7.4958045043961663e-03 5.5561449999123377e-03 0.0000000000000000e+00  -8.1579675356017230e-03 5.7807060619382532e-03 0.0000000000000000e+00  -8.7278633086152607e-03 5.9773464677248152e-03 0.0000000000000000e+00  -9.1436556688282433e-03 6.1423528051602477e-03 0.0000000000000000e+00  -9.3213670492820668e-03 6.2721608803315374e-03 0.0000000000000000e+00  -9.1481573915740272e-03 6.3634182911285917e-03 0.0000000000000000e+00  -8.4739528979155890e-03 6.4130402786582181e-03 0.0000000000000000e+00  -7.1010861094143668e-03 6.4182514788627123e-03 0.0000000000000000e+00  -4.7714820793600997e-03 6.3766038708410197e-03 0.0000000000