<?xml version="1.0"?>
<VTKFile type="UnstructuredGrid"  version="0.1"  >
<UnstructuredGrid>
<Piece  NumberOfPoints="1681" NumberOfCells="3200">
<Points>
<DataArray  type="Float64"  NumberOfComponents="3"  format="ascii">0 0 0  0.5 0 0  1 0 0  1.5 0 0  2 0 0  2.5 0 0  3 0 0  3.5 0 0  4 0 0  4.5 0 0  5 0 0  5.5 0 0  6 0 0  6.5 0 0  7 0 0  7.5 0 0  8 0 0  8.5 0 0  9 0 0  9.5 0 0  10 0 0  10.5 0 0  11 0 0  11.5 0 0  12 0 0  12.5 0 0  13 0 0  13.5 0 0  14 0 0  14.5 0 0  15 0 0  15.5 0 0  16 0 0  16.5 0 0  17 0 0  17.5 0 0  18 0 0  18.5 0 0  19 0 0  19.5 0 0  20 0 0  0 0.5 0  0.5 0.5 0  1 0.5 0  1.5 0.5 0  2 0.5 0  2.5 0.5 0  3 0.5 0  3.5 0.5 0  4 0.5 0  4.5 0.5 0  5 0.5 0  5.5 0.5 0  6 0.5 0  6.5 0.5 0  7 0.5 0  7.5 0.5 0  8 0.5 0  8.5 0.5 0  9 0.5 0  9.5 0.5 0  10 0.5 0  10.5 0.5 0  11 0.5 0  11.5 0.5 0  12 0.5 0  12.5 0.5 0  13 0.5 0  13.5 0.5 0  14 0.5 0  14.5 0.5 0  15 0.5 0  15.5 0.5 0  16 0.5 0  16.5 0.5 0  17 0.5 0  17.5 0.5 0  18 0.5 0  18.5 0.5 0  19 0.5 0  19.5 0.5 0  20 0.5 0  0 1 0  0.5 1 0  1 1 0  1.5 1 0  2 1 0  2.5 1 0  3 1 0  3.5 1 0  4 1 0  4.5 1 0  5 1 0  5.5 1 0  6 1 0  6.5 1 0  7 1 0  7.5 1 0  8 1 0  8.5 1 0  9 1 0  9.5 1 0  10 1 0  10.5 1 0  11 1 0  11.5 1 0  12 1 0  12.5 1 0  13 1 0  13.5 1 0  14 1 0  14.5 1 0  15 1 0  15.5 1 0  16 1 0  16.5 1 0  17 1 0  17.5 1 0  18 1 0  18.5 1 0  19 1 0  19.5 1 0  20 1 0  0 1.5 0  0.5 1.5 0  1 1.5 0  1.5 1.5 0  2 1.5 0  2.5 1.5 0  3 1.5 0  3.5 1.5 0  4 1.5 0  4.5 1.5 0  5 1.5 0  5.5 1.5 0  6 1.5 0  6.5 1.5 0  7 1.5 0  7.5 1.5 0  8 1.5 0  8.5 1.5 0  9 1.5 0  9.5 1.5 0  10 1.5 0  10.5 1.5 0  11 1.5 0  11.5 1.5 0  12 1.5 0  12.5 1.5 0  13 1.5 0  13.5 1.5 0  14 1.5 0  14.5 1.5 0  15 1.5 0  15.5 1.5 0  16 1.5 0  16.5 1.5 0  17 1.5 0  17.5 1.5 0  18 1.5 0  18.5 1.5 0  19 1.5 0  19.5 1.5 0  20 1.5 0  0 2 0  0.5 2 0  1 2 0  1.5 2 0  2 2 0  2.5 2 0  3 2 0  3.5 2 0  4 2 0  4.5 2 0  5 2 0  5.5 2 0  6 2 0  6.5 2 0  7 2 0  7.5 2 0  8 2 0  8.5 2 0  9 2 0  9.5 2 0  10 2 0  10.5 2 0  11 2 0  11.5 2 0  12 2 0  12.5 2 0  13 2 0  13.5 2 0  14 2 0  14.5 2 0  15 2 0  15.5 2 0  16 2 0  16.5 2 0  17 2 0  17.5 2 0  18 2 0  18.5 2 0  19 2 0  19.5 2 0  20 2 0  0 2.5 0  0.5 2.5 0  1 2.5 0  1.5 2.5 0  2 2.5 0  2.5 2.5 0  3 2.5 0  3.5 2.5 0  4 2.5 0  4.5 2.5 0  5 2.5 0  5.5 2.5 0  6 2.5 0  6.5 2.5 0  7 2.5 0  7.5 2.5 0  8 2.5 0  8.5 2.5 0  9 2.5 0  9.5 2.5 0  10 2.5 0  10.5 2.5 0  11 2.5 0  11.5 2.5 0  12 2.5 0  12.5 2.5 0  13 2.5 0  13.5 2.5 0  14 2.5 0  14.5 2.5 0  15 2.5 0  15.5 2.5 0  16 2.5 0  16.5 2.5 0  17 2.5 0  17.5 2.5 0  18 2.5 0  18.5 2.5 0  19 2.5 0  19.5 2.5 0  20 2.5 0  0 3 0  0.5 3 0  1 3 0  1.5 3 0  2 3 0  2.5 3 0  3 3 0  3.5 3 0  4 3 0  4.5 3 0  5 3 0  5.5 3 0  6 3 0  6.5 3 0  7 3 0  7.5 3 0  8 3 0  8.5 3 0  9 3 0  9.5 3 0  10 3 0  10.5 3 0  11 3 0  11.5 3 0  12 3 0  12.5 3 0  13 3 0  13.5 3 0  14 3 0  14.5 3 0  15 3 0  15.5 3 0  16 3 0  16.5 3 0  17 3 0  17.5 3 0  18 3 0  18.5 3 0  19 3 0  19.5 3 0  20 3 0  0 3.5 0  0.5 3.5 0  1 3.5 0  1.5 3.5 0  2 3.5 0  2.5 3.5 0  3 3.5 0  3.5 3.5 0  4 3.5 0  4.5 3.5 0  5 3.5 0  5.5 3.5 0  6 3.5 0  6.5 3.5 0  7 3.5 0  7.5 3.5 0  8 3.5 0  8.5 3.5 0  9 3.5 0  9.5 3.5 0  10 3.5 0  10.5 3.5 0  11 3.5 0  11.5 3.5 0  12 3.5 0  12.5 3.5 0  13 3.5 0  13.5 3.5 0  14 3.5 0  14.5 3.5 0  15 3.5 0  15.5 3.5 0  16 3.5 0  16.5 3.5 0  17 3.5 0  17.5 3.5 0  18 3.5 0  18.5 3.5 0  19 3.5 0  19.5 3.5 0  20 3.5 0  0 4 0  0.5 4 0  1 4 0  1.5 4 0  2 4 0  2.5 4 0  3 4 0  3.5 4 0  4 4 0  4.5 4 0  5 4 0  5.5 4 0  6 4 0  6.5 4 0  7 4 0  7.5 4 0  8 4 0  8.5 4 0  9 4 0  9.5 4 0  10 4 0  10.5 4 0  11 4 0  11.5 4 0  12 4 0  12.5 4 0  13 4 0  13.5 4 0  14 4 0  14.5 4 0  15 4 0  15.5 4 0  16 4 0  16.5 4 0  17 4 0  17.5 4 0  18 4 0  18.5 4 0  19 4 0  19.5 4 0  20 4 0  0 4.5 0  0.5 4.5 0  1 4.5 0  1.5 4.5 0  2 4.5 0  2.5 4.5 0  3 4.5 0  3.5 4.5 0  4 4.5 0  4.5 4.5 0  5 4.5 0  5.5 4.5 0  6 4.5 0  6.5 4.5 0  7 4.5 0  7.5 4.5 0  8 4.5 0  8.5 4.5 0  9 4.5 0  9.5 4.5 0  10 4.5 0  10.5 4.5 0  11 4.5 0  11.5 4.5 0  12 4.5 0  12.5 4.5 0  13 4.5 0  13.5 4.5 0  14 4.5 0  14.5 4.5 0  15 4.5 0  15.5 4.5 0  16 4.5 0  16.5 4.5 0  17 4.5 0  17.5 4.5 0  18 4.5 0  18.5 4.5 0  19 4.5 0  19.5 4.5 0  20 4.5 0  0 5 0  0.5 5 0  1 5 0  1.5 5 0  2 5 0  2.5 5 0  3 5 0  3.5 5 0  4 5 0  4.5 5 0  5 5 0  5.5 5 0  6 5 0  6.5 5 0  7 5 0  7.5 5 0  8 5 0  8.5 5 0  9 5 0  9.5 5 0  10 5 0  10.5 5 0  11 5 0  11.5 5 0  12 5 0  12.5 5 0  13 5 0  13.5 5 0  14 5 0  14.5 5 0  15 5 0  15.5 5 0  16 5 0  16.5 5 0  17 5 0  17.5 5 0  18 5 0  18.5 5 0  19 5 0  19.5 5 0  20 5 0  0 5.5 0  0.5 5.5 0  1 5.5 0  1.5 5.5 0  2 5.5 0  2.5 5.5 0  3 5.5 0  3.5 5.5 0  4 5.5 0  4.5 5.5 0  5 5.5 0  5.5 5.5 0  6 5.5 0  6.5 5.5 0  7 5.5 0  7.5 5.5 0  8 5.5 0  8.5 5.5 0  9 5.5 0  9.5 5.5 0  10 5.5 0  10.5 5.5 0  11 5.5 0  11.5 5.5 0  12 5.5 0  12.5 5.5 0  13 5.5 0  13.5 5.5 0  14 5.5 0  14.5 5.5 0  15 5.5 0  15.5 5.5 0  16 5.5 0  16.5 5.5 0  17 5.5 0  17.5 5.5 0  18 5.5 0  18.5 5.5 0  19 5.5 0  19.5 5.5 0  20 5.5 0  0 6 0  0.5 6 0  1 6 0  1.5 6 0  2 6 0  2.5 6 0  3 6 0  3.5 6 0  4 6 0  4.5 6 0  5 6 0  5.5 6 0  6 6 0  6.5 6 0  7 6 0  7.5 6 0  8 6 0  8.5 6 0  9 6 0  9.5 6 0  10 6 0  10.5 6 0  11 6 0  11.5 6 0  12 6 0  12.5 6 0  13 6 0  13.5 6 0  14 6 0  14.5 6 0  15 6 0  15.5 6 0  16 6 0  16.5 6 0  17 6 0  17.5 6 0  18 6 0  18.5 6 0  19 6 0  19.5 6 0  20 6 0  0 6.5 0  0.5 6.5 0  1 6.5 0  1.5 6.5 0  2 6.5 0  2.5 6.5 0  3 6.5 0  3.5 6.5 0  4 6.5 0  4.5 6.5 0  5 6.5 0  5.5 6.5 0  6 6.5 0  6.5 6.5 0  7 6.5 0  7.5 6.5 0  8 6.5 0  8.5 6.5 0  9 6.5 0  9.5 6.5 0  10 6.5 0  10.5 6.5 0  11 6.5 0  11.5 6.5 0  12 6.5 0  12.5 6.5 0  13 6.5 0  13.5 6.5 0  14 6.5 0  14.5 6.5 0  15 6.5 0  15.5 6.5 0  16 6.5 0  16.5 6.5 0  17 6.5 0  17.5 6.5 0  18 6.5 0  18.5 6.5 0  19 6.5 0  19.5 6.5 0  20 6.5 0  0 7 0  0.5 7 0  1 7 0  1.5 7 0  2 7 0  2.5 7 0  3 7 0  3.5 7 0  4 7 0  4.5 7 0  5 7 0  5.5 7 0  6 7 0  6.5 7 0  7 7 0  7.5 7 0  8 7 0  8.5 7 0  9 7 0  9.5 7 0  10 7 0  10.5 7 0  11 7 0  11.5 7 0  12 7 0  12.5 7 0  13 7 0  13.5 7 0  14 7 0  14.5 7 0  15 7 0  15.5 7 0  16 7 0  16.5 7 0  17 7 0  17.5 7 0  18 7 0  18.5 7 0  19 7 0  19.5 7 0  20 7 0  0 7.5 0  0.5 7.5 0  1 7.5 0  1.5 7.5 0  2 7.5 0  2.5 7.5 0  3 7.5 0  3.5 7.5 0  4 7.5 0  4.5 7.5 0  5 7.5 0  5.5 7.5 0  6 7.5 0  6.5 7.5 0  7 7.5 0  7.5 7.5 0  8 7.5 0  8.5 7.5 0  9 7.5 0  9.5 7.5 0  10 7.5 0  10.5 7.5 0  11 7.5 0  11.5 7.5 0  12 7.5 0  12.5 7.5 0  13 7.5 0  13.5 7.5 0  14 7.5 0  14.5 7.5 0  15 7.5 0  15.5 7.5 0  16 7.5 0  16.5 7.5 0  17 7.5 0  17.5 7.5 0  18 7.5 0  18.5 7.5 0  19 7.5 0  19.5 7.5 0  20 7.5 0  0 8 0  0.5 8 0  1 8 0  1.5 8 0  2 8 0  2.5 8 0  3 8 0  3.5 8 0  4 8 0  4.5 8 0  5 8 0  5.5 8 0  6 8 0  6.5 8 0  7 8 0  7.5 8 0  8 8 0  8.5 8 0  9 8 0  9.5 8 0  10 8 0  10.5 8 0  11 8 0  11.5 8 0  12 8 0  12.5 8 0  13 8 0  13.5 8 0  14 8 0  14.5 8 0  15 8 0  15.5 8 0  16 8 0  16.5 8 0  17 8 0  17.5 8 0  18 8 0  18.5 8 0  19 8 0  19.5 8 0  20 8 0  0 8.5 0  0.5 8.5 0  1 8.5 0  1.5 8.5 0  2 8.5 0  2.5 8.5 0  3 8.5 0  3.5 8.5 0  4 8.5 0  4.5 8.5 0  5 8.5 0  5.5 8.5 0  6 8.5 0  6.5 8.5 0  7 8.5 0  7.5 8.5 0  8 8.5 0  8.5 8.5 0  9 8.5 0  9.5 8.5 0  10 8.5 0  10.5 8.5 0  11 8.5 0  11.5 8.5 0  12 8.5 0  12.5 8.5 0  13 8.5 0  13.5 8.5 0  14 8.5 0  14.5 8.5 0  15 8.5 0  15.5 8.5 0  16 8.5 0  16.5 8.5 0  17 8.5 0  17.5 8.5 0  18 8.5 0  18.5 8.5 0  19 8.5 0  19.5 8.5 0  20 8.5 0  0 9 0  0.5 9 0  1 9 0  1.5 9 0  2 9 0  2.5 9 0  3 9 0  3.5 9 0  4 9 0  4.5 9 0  5 9 0  5.5 9 0  6 9 0  6.5 9 0  7 9 0  7.5 9 0  8 9 0  8.5 9 0  9 9 0  9.5 9 0  10 9 0  10.5 9 0  11 9 0  11.5 9 0  12 9 0  12.5 9 0  13 9 0  13.5 9 0  14 9 0  14.5 9 0  15 9 0  15.5 9 0  16 9 0  16.5 9 0  17 9 0  17.5 9 0  18 9 0  18.5 9 0  19 9 0  19.5 9 0  20 9 0  0 9.5 0  0.5 9.5 0  1 9.5 0  1.5 9.5 0  2 9.5 0  2.5 9.5 0  3 9.5 0  3.5 9.5 0  4 9.5 0  4.5 9.5 0  5 9.5 0  5.5 9.5 0  6 9.5 0  6.5 9.5 0  7 9.5 0  7.5 9.5 0  8 9.5 0  8.5 9.5 0  9 9.5 0  9.5 9.5 0  10 9.5 0  10.5 9.5 0  11 9.5 0  11.5 9.5 0  12 9.5 0  12.5 9.5 0  13 9.5 0  13.5 9.5 0  14 9.5 0  14.5 9.5 0  15 9.5 0  15.5 9.5 0  16 9.5 0  16.5 9.5 0  17 9.5 0  17.5 9.5 0  18 9.5 0  18.5 9.5 0  19 9.5 0  19.5 9.5 0  20 9.5 0  0 10 0  0.5 10 0  1 10 0  1.5 10 0  2 10 0  2.5 10 0  3 10 0  3.5 10 0  4 10 0  4.5 10 0  5 10 0  5.5 10 0  6 10 0  6.5 10 0  7 10 0  7.5 10 0  8 10 0  8.5 10 0  9 10 0  9.5 10 0  10 10 0  10.5 10 0  11 10 0  11.5 10 0  12 10 0  12.5 10 0  13 10 0  13.5 10 0  14 10 0  14.5 10 0  15 10 0  15.5 10 0  16 10 0  16.5 10 0  17 10 0  17.5 10 0  18 10 0  18.5 10 0  19 10 0  19.5 10 0  20 10 0  0 10.5 0  0.5 10.5 0  1 10.5 0  1.5 10.5 0  2 10.5 0  2.5 10.5 0  3 10.5 0  3.5 10.5 0  4 10.5 0  4.5 10.5 0  5 10.5 0  5.5 10.5 0  6 10.5 0  6.5 10.5 0  7 10.5 0  7.5 10.5 0  8 10.5 0  8.5 10.5 0  9 10.5 0  9.5 10.5 0  10 10.5 0  10.5 10.5 0  11 10.5 0  11.5 10.5 0  12 10.5 0  12.5 10.5 0  13 10.5 0  13.5 10.5 0  14 10.5 0  14.5 10.5 0  15 10.5 0  15.5 10.5 0  16 10.5 0  16.5 10.5 0  17 10.5 0  17.5 10.5 0  18 10.5 0  18.5 10.5 0  19 10.5 0  19.5 10.5 0  20 10.5 0  0 11 0  0.5 11 0  1 11 0  1.5 11 0  2 11 0  2.5 11 0  3 11 0  3.5 11 0  4 11 0  4.5 11 0  5 11 0  5.5 11 0  6 11 0  6.5 11 0  7 11 0  7.5 11 0  8 11 0  8.5 11 0  9 11 0  9.5 11 0  10 11 0  10.5 11 0  11 11 0  11.5 11 0  12 11 0  12.5 11 0  13 11 0  13.5 11 0  14 11 0  14.5 11 0  15 11 0  15.5 11 0  16 11 0  16.5 11 0  17 11 0  17.5 11 0  18 11 0  18.5 11 0  19 11 0  19.5 11 0  20 11 0  0 11.5 0  0.5 11.5 0  1 11.5 0  1.5 11.5 0  2 11.5 0  2.5 11.5 0  3 11.5 0  3.5 11.5 0  4 11.5 0  4.5 11.5 0  5 11.5 0  5.5 11.5 0  6 11.5 0  6.5 11.5 0  7 11.5 0  7.5 11.5 0  8 11.5 0  8.5 11.5 0  9 11.5 0  9.5 11.5 0  10 11.5 0  10.5 11.5 0  11 11.5 0  11.5 11.5 0  12 11.5 0  12.5 11.5 0  13 11.5 0  13.5 11.5 0  14 11.5 0  14.5 11.5 0  15 11.5 0  15.5 11.5 0  16 11.5 0  16.5 11.5 0  17 11.5 0  17.5 11.5 0  18 11.5 0  18.5 11.5 0  19 11.5 0  19.5 11.5 0  20 11.5 0  0 12 0  0.5 12 0  1 12 0  1.5 12 0  2 12 0  2.5 12 0  3 12 0  3.5 12 0  4 12 0  4.5 12 0  5 12 0  5.5 12 0  6 12 0  6.5 12 0  7 12 0  7.5 12 0  8 12 0  8.5 12 0  9 12 0  9.5 12 0  10 12 0  10.5 12 0  11 12 0  11.5 12 0  12 12 0  12.5 12 0  13 12 0  13.5 12 0  14 12 0  14.5 12 0  
[...]
<PointData  Vectors="f_5173-0"> 
<DataArray  type="Float64"  Name="f_5173-0"  NumberOfComponents="3" format="ascii">0.0000000000000000e+00 0.0000000000000000e+00 0.0000000000000000e+00  -8.7451301403830732e-07 0.0000000000000000e+00 0.0000000000000000e+00  -4.4752648101383596e-06 0.0000000000000000e+00 0.0000000000000000e+00  -1.4274462539822074e-05 0.0000000000000000e+00 0.0000000000000000e+00  -3.3338129778897425e-05 0.0000000000000000e+00 0.0000000000000000e+00  -6.4677141384823504e-05 0.0000000000000000e+00 0.0000000000000000e+00  -1.1125259211217153e-04 0.0000000000000000e+00 0.0000000000000000e+00  -1.7595866161186258e-04 0.0000000000000000e+00 0.0000000000000000e+00  -2.6160480743462228e-04 0.0000000000000000e+00 0.0000000000000000e+00  -3.7089739598387847e-04 0.0000000000000000e+00 0.0000000000000000e+00  -5.0642003945821756e-04 0.0000000000000000e+00 0.0000000000000000e+00  -6.7061207029393182e-04 0.0000000000000000e+00 0.0000000000000000e+00  -8.6574455849337708e-04 0.0000000000000000e+00 0.0000000000000000e+00  -1.0938930745661248e-03 0.0000000000000000e+00 0.0000000000000000e+00  -1.3569060118565465e-03 0.0000000000000000e+00 0.0000000000000000e+00  -1.6563666341471220e-03 0.0000000000000000e+00 0.0000000000000000e+00  -1.9935459832140586e-03 0.0000000000000000e+00 0.0000000000000000e+00  -2.3693421821025518e-03 0.0000000000000000e+00 0.0000000000000000e+00  -2.7841992465557526e-03 0.0000000000000000e+00 0.0000000000000000e+00  -3.2379949228855502e-03 0.0000000000000000e+00 0.0000000000000000e+00  -3.7298818584776848e-03 0.0000000000000000e+00 0.0000000000000000e+00  -4.2580590303110365e-03 0.0000000000000000e+00 0.0000000000000000e+00  -4.8194401745033592e-03 0.0000000000000000e+00 0.0000000000000000e+00  -5.4091723132480944e-03 0.0000000000000000e+00 0.0000000000000000e+00  -6.0199397750251077e-03 0.0000000000000000e+00 0.0000000000000000e+00  -6.6409669877076968e-03 0.0000000000000000e+00 0.0000000000000000e+00  -7.2566068591514475e-03 0.0000000000000000e+00 0.0000000000000000e+00  -7.8443714393671878e-03 0.0000000000000000e+00 0.0000000000000000e+00  -8.3722292013599080e-03 0.0000000000000000e+00 0.0000000000000000e+00  -8.7949606555008750e-03 0.0000000000000000e+00 0.0000000000000000e+00  -9.0493329696311534e-03 0.0000000000000000e+00 0.0000000000000000e+00  -9.0478250648349835e-03 0.0000000000000000e+00 0.0000000000000000e+00  -8.6706035013455942e-03 0.0000000000000000e+00 0.0000000000000000e+00  -7.7554048763894224e-03 0.0000000000000000e+00 0.0000000000000000e+00  -6.0848982905718236e-03 0.0000000000000000e+00 0.0000000000000000e+00  -3.3709379213222048e-03 0.0000000000000000e+00 0.0000000000000000e+00  7.6520460566722917e-04 0.0000000000000000e+00 0.0000000000000000e+00  6.8181516294365738e-03 0.0000000000000000e+00 0.0000000000000000e+00  1.5432004735266189e-02 0.0000000000000000e+00 0.0000000000000000e+00  2.7447831157563884e-02 0.0000000000000000e+00 0.0000000000000000e+00  4.3983478512990414e-02 0.0000000000000000e+00 0.0000000000000000e+00  0.0000000000000000e+00 -8.7451301544108186e-07 0.0000000000000000e+00  1.0590966823801327e-06 1.0590966817862521e-06 0.0000000000000000e+00  -1.1055586462686382e-06 5.8779066499967595e-06 0.0000000000000000e+00  -9.4051731120103584e-06 1.3637225198560841e-05 0.0000000000000000e+00  -2.6935384392339792e-05 2.4398188693176910e-05 0.0000000000000000e+00  -5.6731503216621384e-05 3.8148833130999988e-05 0.0000000000000000e+00  -1.0176369960118774e-04 5.4837949854358020e-05 0.0000000000000000e+00  -1.6493008690133176e-04 7.4391251562656448e-05 0.0000000000000000e+00  -2.4904293145544033e-04 9.6715981115772960e-05 0.0000000000000000e+00  -3.5681160393652721e-04 1.2170136012061629e-04 0.0000000000000000e+00  -4.9082336825308920e-04 1.4921769785948663e-04 0.0000000000000000e+00  -6.5352203159740592e-04 1.7911506933842474e-04 0.0000000000000000e+00  -8.4718404079137837e-04 2.1122185783450606e-04 0.0000000000000000e+00  -1.0738912819702772e-03 2.4534327943974660e-04 0.0000000000000000e+00  -1.3354994126713927e-03 2.8125996102913329e-04 0.0000000000000000e+00  -1.6335998948290875e-03 3.1872663550692039e-04 0.0000000000000000e+00  -1.9694728612551882e-03 3.5747102227143220e-04 0.0000000000000000e+00  -2.3440263472942402e-03 3.9719296876750284e-04 0.0000000000000000e+00  -2.7577149949464569e-03 4.3756393836941502e-04 0.0000000000000000e+00  -3.2104277418831713e-03 4.7822694048730240e-04 0.0000000000000000e+00  -3.7013287948562254e-03 5.1879701030042012e-04 0.0000000000000000e+00  -4.2286288059632396e-03 5.5886235790966754e-04 0.0000000000000000e+00  -4.7892529881644113e-03 5.9798631897680298e-04 0.0000000000000000e+00  -5.3783592615491973e-03 6.3571024911744916e-04 0.0000000000000000e+00  -5.9886418252668655e-03 6.7155750770787285e-04 0.0000000000000000e+00  -6.6093334399221588e-03 7.0503866585216275e-04 0.0000000000000000e+00  -7.2247932472515822e-03 7.3565803621558775e-04 0.0000000000000000e+00  -7.8125368363055753e-03 7.6292154444626580e-04 0.0000000000000000e+00  -8.3405328962645759e-03 7.8634582606353380e-04 0.0000000000000000e+00  -8.7635581264422918e-03 8.0546822785916865e-04 0.0000000000000000e+00  -9.0183709178437241e-03 8.1985712033529653e-04 0.0000000000000000e+00  -9.0174348958164431e-03 8.2912161493638701e-04 0.0000000000000000e+00  -8.6408918753296590e-03 8.3291948973880767e-04 0.0000000000000000e+00  -7.7264385951456025e-03 8.3096195972652076e-04 0.0000000000000000e+00  -6.0566786233051889e-03 8.2301398922292486e-04 0.0000000000000000e+00  -3.3433565604732221e-03 8.0888908705736677e-04 0.0000000000000000e+00  7.9243743315493217e-04 7.8843690534313455e-04 0.0000000000000000e+00  6.8456027275506726e-03 7.6151407879997178e-04 0.0000000000000000e+00  1.5460505800189246e-02 7.2788004680956228e-04 0.0000000000000000e+00  2.7477139066646259e-02 6.8670724940391413e-04 0.0000000000000000e+00  4.3996879732412592e-02 6.3424918327641437e-04 0.0000000000000000e+00  0.0000000000000000e+00 -4.4752648127960822e-06 0.0000000000000000e+00  5.8779066492884630e-06 -1.1055586468331964e-06 0.0000000000000000e+00  8.3843323235483555e-06 8.3843323218933396e-06 0.0000000000000000e+00  4.7101080511875624e-06 2.3934078282675896e-05 0.0000000000000000e+00  -8.1956492895757710e-06 4.5515419055319132e-05 0.0000000000000000e+00  -3.3362305009072202e-05 7.3063644698789649e-05 0.0000000000000000e+00  -7.3765296762727249e-05 1.0647489084431680e-04 0.0000000000000000e+00  -1.3231001162846093e-04 1.4560684550909170e-04 0.0000000000000000e+00  -2.1181678530909017e-04 1.9027981341391699e-04 0.0000000000000000e+00  -3.1500430291801058e-04 2.4027657920752866e-04 0.0000000000000000e+00  -4.4447094750012776e-04 2.9534104678991294e-04 0.0000000000000000e+00  -6.0267386552238984e-04 3.5517606677932547e-04 0.0000000000000000e+00  -7.9190533660135668e-04 4.1944082553933826e-04 0.0000000000000000e+00  -1.0142657347805069e-03 4.8774806326372789e-04 0.0000000000000000e+00  -1.2716319288424889e-03 5.5966131878012169e-04 0.0000000000000000e+00  -1.5656192952857575e-03 6.3469236794402796e-04 0.0000000000000000e+00  -1.8975344723457964e-03 7.1229901608190751e-04 0.0000000000000000e+00  -2.2683143767375917e-03 7.9188341183784470e-04 0.0000000000000000e+00  -2.6784445760442677e-03 8.7279106346618623e-04 0.0000000000000000e+00  -3.1278465115205331e-03 9.5431075585920312e-04 0.0000000000000000e+00  -3.6157178502513911e-03 1.0356755852443150e-03 0.0000000000000000e+00  -4.1403028622294278e-03 1.1160653473443628e-03 0.0000000000000000e+00  -4.6985595351987913e-03 1.1946105305618204e-03 0.0000000000000000e+00  -5.2856764975932240e-03 1.2703981750300040e-03 0.0000000000000000e+00  -5.8943751307244385e-03 1.3424798531426925e-03 0.0000000000000000e+00  -6.5139101562799347e-03 1.4098819967023005e-03 0.0000000000000000e+00  -7.1286555506180288e-03 1.4716187242447202e-03 0.0000000000000000e+00  -7.7161325499078247e-03 1.5267071909478571e-03 0.0000000000000000e+00  -8.2443041696143582e-03 1.5741852734871050e-03 0.0000000000000000e+00  -8.6679280032705783e-03 1.6131311006097140e-03 0.0000000000000000e+00  -8.9237278751324953e-03 1.6426835484864301e-03 0.0000000000000000e+00  -8.9241153860271823e-03 1.6620623570491322e-03 0.0000000000000000e+00  -8.5491606438589992e-03 1.6705860152398642e-03 0.0000000000000000e+00  -7.6364660078195338e-03 1.6676849709177507e-03 0.0000000000000000e+00  -5.9685135764891359e-03 1.6529067107227400e-03 0.0000000000000000e+00  -3.2568937770517162e-03 1.6259064733872702e-03 0.0000000000000000e+00  8.7749156270624075e-04 1.5864082332271263e-03 0.0000000000000000e+00  6.9297350085791715e-03 1.5340909742031302e-03 0.0000000000000000e+00  1.5544234914497555e-02 1.4682656257274228e-03 0.0000000000000000e+00  2.7560191453700675e-02 1.3869716303684561e-03 0.0000000000000000e+00  4.4075856790309766e-02 1.2847097210433496e-03 0.0000000000000000e+00  0.0000000000000000e+00 -1.4274462539842459e-05 0.0000000000000000e+00  1.3637225197786276e-05 -9.4051731115782378e-06 0.0000000000000000e+00  2.3934078279566021e-05 4.7101080499900882e-06 0.0000000000000000e+00  2.7996545124317408e-05 2.7996545126005375e-05 0.0000000000000000e+00  2.2811079882750956e-05 6.0371519175110233e-05 0.0000000000000000e+00  5.3577955832411269e-06 1.0171610136404766e-04 0.0000000000000000e+00  -2.7339437083412663e-05 1.5186389444316146e-04 0.0000000000000000e+00  -7.8192371463123173e-05 2.1059894549506122e-04 0.0000000000000000e+00  -1.5003178415648816e-04 2.7765375144346929e-04 0.0000000000000000e+00  -2.4559043628173742e-04 3.5270655494028897e-04 0.0000000000000000e+00  -3.6748450693887137e-04 4.3537804666253532e-04 0.0000000000000000e+00  -5.1819291646073055e-04 5.2522759693112938e-04 0.0000000000000000e+00  -7.0003395993739267e-04 6.2174916649768359e-04 0.0000000000000000e+00  -9.1513846338893109e-04 7.2436707949699944e-04 0.0000000000000000e+00  -1.1654182731473590e-03 8.3243186290452421e-04 0.0000000000000000e+00  -1.4525282284115217e-03 9.4521637251782618e-04 0.0000000000000000e+00  -1.7778187242099360e-03 1.0619124414536197e-03 0.0000000000000000e+00  -2.1422743638518159e-03 1.1816283070267446e-03 0.0000000000000000e+00  -2.5464317683422492e-03 1.3033870945698080e-03 0.0000000000000000e+00  -2.9902660090493655e-03 1.4261266616548438e-03 0.0000000000000000e+00  -3.4730299115670040e-03 1.5487011308100676e-03 0.0000000000000000e+00  -3.9930230944930844e-03 1.6698844607005430e-03 0.0000000000000000e+00  -4.5472574258050647e-03 1.7883764206316345e-03 0.0000000000000000e+00  -5.1309719441314395e-03 1.9028113350675335e-03 0.0000000000000000e+00  -5.7369326176686516e-03 2.0117699439447345e-03 0.0000000000000000e+00  -6.3544302440327310e-03 2.1137946678690327e-03 0.0000000000000000e+00  -6.9678633974663831e-03 2.2074084566603728e-03 0.0000000000000000e+00  -7.5547632913876067e-03 2.2911372144267914e-03 0.0000000000000000e+00  -8.0830851368495927e-03 2.3635355117032596e-03 0.0000000000000000e+00  -8.5075579624331373e-03 2.4232148946215391e-03 0.0000000000000000e+00  -8.7648536872820607e-03 2.4688735644133267e-03 0.0000000000000000e+00  -8.7673066817075020e-03 2.4993255018210246e-03 0.0000000000000000e+00  -8.3948832711587713e-03 2.5135261735807195e-03 0.0000000000000000e+00  -7.4850552884191393e-03 2.5105905314600141e-03 0.0000000000000000e+00  -5.8201494148041695e-03 2.4897963691011792e-03 0.0000000000000000e+00  -3.1115833900591566e-03 2.4505603496412418e-03 0.0000000000000000e+00  1.0199055511271578e-03 2.3923608501430103e-03 0.0000000000000000e+00  7.0694891787252577e-03 2.3145531389534586e-03 0.0000000000000000e+00  1.5681345817330376e-02 2.2159704232692372e-03 0.0000000000000000e+00  2.7693655767448266e-02 2.0941567284862858e-03 0.0000000000000000e+00  4.4202170293077894e-02 1.9442616527603066e-03 0.0000000000000000e+00  0.0000000000000000e+00 -3.3338129776209952e-05 0.0000000000000000e+00  2.4398188691976048e-05 -2.6935384392617040e-05 0.0000000000000000e+00  4.5515419054642712e-05 -8.1956492906722754e-06 0.0000000000000000e+00  6.0371519174732646e-05 2.2811079880406460e-05 0.0000000000000000e+00  6.5964737961048532e-05 6.5964737961823086e-05 0.0000000000000000e+00  5.9281913858129670e-05 1.2109839949635624e-04 0.0000000000000000e+00  3.7345143782485195e-05 1.8798730484637793e-04 0.0000000000000000e+00  -2.7650657070787192e-06 2.6634444106657943e-04 0.0000000000000000e+00  -6.3892431763755273e-05 3.5581679158359279e-04 0.0000000000000000e+00  -1.4878789347290067e-04 4.5598101637774557e-04 0.0000000000000000e+00  -2.6009130985868949e-04 5.6633846753523719e-04 0.0000000000000000e+00  -4.0031110315290932e-04 6.8630970025536386e-04 0.0000000000000000e+00  -5.7180118867973995e-04 8.1522867645602995e-04 0.0000000000000000e+00  -7.7673434802957950e-04 9.5233687088618361e-04 0.0000000000000000e+00  -1.0170708109047426e-03 1.0967775127269685e-03 0.0000000000000000e+00  -1.2945201560999782e-03 1.2475902265879945e-03 0.0000000000000000e+00  -1.6104936016130885e-03 1.4037063715519331e-03 0.0000000000000000e+00  -1.9660421457981651e-03 1.5639454132865098e-03 0.0000000000000000e+00  -2.3617735887430952e-03 1.7270127007492835e-03 0.0000000000000000e+00  -2.7977378605999904e-03 1.8914990544041854e-03 0.0000000000000000e+00  -3.2732648649830220e-03 2.0558826048625183e-03 0.0000000000000000e+00  -3.7867316635283575e-03 2.2185333453778786e-03 0.0000000000000000e+00  -4.3352256531742099e-03 2.3777208738490563e-03 0.0000000000000000e+00  -4.9140567657588686e-03 2.5316257913321235e-03 0.0000000000000000e+00  -5.5160540685756107e-03 2.6783551833354470e-03 0.0000000000000000e+00  -6.1305601116133498e-03 2.8159625222772401e-03 0.0000000000000000e+00  -6.7420100220855154e-03 2.9424721740474633e-03 0.0000000000000000e+00  -7.3279523747118002e-03 3.0559084452450366e-03 0.0000000000000000e+00  -7.8563366550210723e-03 3.1543287429856640e-03 0.0000000000000000e+00  -8.2818595966921531e-03 3.2358599051341055e-03 0.0000000000000000e+00  -8.5411315764672424e-03 3.2987360574093286e-03 0.0000000000000000e+00  -8.5463947826179519e-03 3.3413354020253657e-03 0.0000000000000000e+00  -8.1774932745125161e-03 3.3622120094101544e-03 0.0000000000000000e+00  -7.2717501912438866e-03 3.3601166738518986e-03 0.0000000000000000e+00  -5.6113263248584065e-03 3.3339975741234844e-03 0.0000000000000000e+00  -2.9074768102559218e-03 3.2829656878126485e-03 0.0000000000000000e+00  1.2191763319149434e-03 3.2062001046930942e-03 0.0000000000000000e+00  7.2637817441197549e-03 3.1027546030096258e-03 0.0000000000000000e+00  1.5870190237133458e-02 2.9712186170859417e-03 0.0000000000000000e+00  2.7875743304063026e-02 2.8092242110635325e-03 0.0000000000000000e+00  4.4375026902050738e-02 2.6129822431508513e-03 0.0000000000000000e+00  0.0000000000000000e+00 -6.4677141381989345e-05 0.0000000000000000e+00  3.8148833132566911e-05 -5.6731503216383212e-05 0.0000000000000000e+00  7.3063644697284803e-05 -3.3362305011094930e-05 0.0000000000000000e+00  1.0171610136249626e-04 5.3577955813673494e-06 0.0000000000000000e+00  1.2109839949548324e-04 5.9281913857633193e-05 0.0000000000000000e+00  1.2820073046452762e-04 1.2820073046400899e-04 0.0000000000000000e+00  1.2004237444035463e-04 2.1183587889117729e-04 0.0000000000000000e+00  9.3694628347800347e-05 3.0983415920613741e-04 0.0000000000000000e+00  4.6298301891462115e-05 4.2176222231213908e-04 0.0000000000000000e+00  -2.4919579377101247e-05 5.4710070872162286e-04 0.0000000000000000e+00  -1.2262796002688139e-04 6.8523766987631110e-04 0.0000000000000000e+00  -2.4937190027948813e-04 8.3546139474002725e-04 0.0000000000000000e+00  -4.0754993515916468e-04 9.9695285382191590e-04 0.0000000000000000e+00  -5.9938775174065882e-04 1.1687780124092658e-03 0.0000000000000000e+00  -8.2690690679794194e-04 1.3498802985063773e-03 0.0000000000000000e+00  -1.0918866520932700e-03 1.5390735499590247e-03 0.0000000000000000e+00  -1.3958158922753585e-03 1.7350358095122120e-03 0.0000000000000000e+00  -1.7398306897037773e-03 1.9363043844191712e-03 0.0000000000000000e+00  -2.1246302962692294e-03 2.1412726355674902e-03 0.0000000000000000e+00  -2.5503610891807445e-03 2.3481890072994086e-03 0.0000000000000000e+00  -3.0164525712496606e-03 2.5551588489600963e-03 0.0000000000000000e+00  -3.5213822198046610e-03 2.7601496074798173e-03 0.0000000000000000e+00  -4.0623358057967499e-03 2.9609999801730211e-03 0.0000000000000000e+00  -4.6347162034887559e-03 3.1554335978364887e-03 0.0000000000000000e+00  -5.2314360930059397e-03 3.3410777473956333e-03 0.0000000000000000e+00  -5.8419079732521329e-03 3.5154875232038495e-03 0.0000000000000000e+00  -6.4506186236276773e-03 3.6761755947818425e-03 0.0000000000000000e+00  -7.0351452645143605e-03 3.8206474703434338e-03 0.0000000000000000e+00  -7.5634385552178478e-03 3.9464416892239064e-03 0.0000000000000000e+00  -7.9901651446500216e-03 4.0511737558259764e-03 0.0000000000000000e+00  -8.2518715214462777e-03 4.1325817879443900e-03 0.0000000000000000e+00  -8.2607016127855346e-03 4.1885707272393720e-03 0.0000000000000000e+00  -7.8963692690126475e-03 4.2172504425567045e-03 0.0000000000000000e+00  -6.9960424786328504e-03 4.2169609677465119e-03 0.0000000000000000e+00  -5.3417162325940046e-03 4.1862751945805233e-03 0.0000000000000000e+00  -2.6444953935248114e-03 4.1239653797639055e-03 0.0000000000000000e+00  1.4750879458851993e-03 4.0289152700638308e-03 0.0000000000000000e+00  7.5121432655403846e-03 3.8999572869553496e-03 0.0000000000000000e+00  1.6110274379238593e-02 3.7356223126914947e-03 0.0000000000000000e+00  2.8106370944429960e-02 3.5338230302479684e-03 0.0000000000000000e+00  4.4594770694728073e-02 3.2915466040689288e-03 0.0000000000000000e+00  0.0000000000000000e+00 -1.1125259211213941e-04 0.0000000000000000e+00  5.4837949855566939e-05 -1.0176369959948966e-04 0.0000000000000000e+00  1.0647489084095611e-04 -7.3765296763032885e-05 0.0000000000000000e+00  1.5186389443949753e-04 -2.7339437084808167e-05 0.0000000000000000e+00  1.8798730484291822e-04 3.7345143780808578e-05 0.0000000000000000e+00  2.1183587888854534e-04 1.2004237444176121e-04 0.0000000000000000e+00  2.2042560768413414e-04 2.2042560768776971e-04 0.0000000000000000e+00  2.1081785195911800e-04 3.3808132311397942e-04 0.0000000000000000e+00  1.8013617671308743e-04 4.7250243771388740e-04 0.0000000000000000e+00  1.2558244737490254e-04 6.2308089656351378e-04 0.0000000000000000e+00  4.4453952940130366e-05 7.8909944061678658e-04 0.0000000000000000e+00  -6.5837417144243383e-05 9.6972266855811329e-04 0.0000000000000000e+00  -2.0774311472014526e-04 1.1639876142676964e-03 0.0000000000000000e+00  -3.8355203753875499e-04 1.3707941210870473e-03 0.0000000000000000e+00  -5.9535946730715559e-04 1.5888953439436686e-03 0.0000000000000000e+00  -8.4502885705948149e-04 1.8168887628123109e-03 0.0000000000000000e+00  -1.1341434387767287e-03 2.0532081475125785e-03 0.0000000000000000e+00  -1.4639430082223209e-03 2.2961169741014483e-03 0.0000000000000000e+00  -1.8352388075164139e-03 2.5437038538133169e-03 0.0000000000000000e+00  -2.2482958230493444e-03 2.7938805932206084e-03 0.0000000000000000e+00  -2.7026666035341582e-03 3.0443835537061182e-03 0.0000000000000000e+00  -3.1969533358920019e-03 3.2927790124035118e-03 0.0000000000000000e+00  -3.7284647712142651e-03 3.5364732370157855e-03 0.0000000000000000e+00  -4.2927210197142148e-03 3.7727279605130029e-03 0.0000000000000000e+00  -4.8827416574417758e-03 3.9986818643734622e-03 0.0000000000000000e+00  -5.4880306623288017e-03 4.2113785306992233e-03 0.0000000000000000e+00  -6.0931454971222465e-03 4.4078010816191318e-03 0.0000000000000000e+00  -6.6757078681547177e-03 4.5849133610317777e-03 0.0000000000000000e+00  -7.2036816965172822e-03 4.7397069982800894e-03 0.0000000000000000e+00  -7.6317115500188770e-03 4.8692529906036531e-03 0.0000000000000000e+00  -7.8962839685844249e-03 4.9707555131911140e-03 0.0000000000000000e+00  -7.9094449996007787e-03 5.0416044706852623e-03 0.0000000000000000e+00  -7.5507761896873868e-03 5.0794218006432416e-03 0.0000000000000000e+00  -6.6572873336234730e-03 5.0820947039467001e-03 0.0000000000000000e+00  -5.0108047921497770e-03 5.0477868631224141e-03 0.0000000000