<?xml version="1.0"?>
<VTKFile type="UnstructuredGrid"  version="0.1"  >
<UnstructuredGrid>
<Piece  NumberOfPoints="1681" NumberOfCells="3200">
<Points>
<DataArray  type="Float64"  NumberOfComponents="3"  format="ascii">0 0 0  0.5 0 0  1 0 0  1.5 0 0  2 0 0  2.5 0 0  3 0 0  3.5 0 0  4 0 0  4.5 0 0  5 0 0  5.5 0 0  6 0 0  6.5 0 0  7 0 0  7.5 0 0  8 0 0  8.5 0 0  9 0 0  9.5 0 0  10 0 0  10.5 0 0  11 0 0  11.5 0 0  12 0 0  12.5 0 0  13 0 0  13.5 0 0  14 0 0  14.5 0 0  15 0 0  15.5 0 0  16 0 0  16.5 0 0  17 0 0  17.5 0 0  18 0 0  18.5 0 0  19 0 0  19.5 0 0  20 0 0  0 0.5 0  0.5 0.5 0  1 0.5 0  1.5 0.5 0  2 0.5 0  2.5 0.5 0  3 0.5 0  3.5 0.5 0  4 0.5 0  4.5 0.5 0  5 0.5 0  5.5 0.5 0  6 0.5 0  6.5 0.5 0  7 0.5 0  7.5 0.5 0  8 0.5 0  8.5 0.5 0  9 0.5 0  9.5 0.5 0  10 0.5 0  10.5 0.5 0  11 0.5 0  11.5 0.5 0  12 0.5 0  12.5 0.5 0  13 0.5 0  13.5 0.5 0  14 0.5 0  14.5 0.5 0  15 0.5 0  15.5 0.5 0  16 0.5 0  16.5 0.5 0  17 0.5 0  17.5 0.5 0  18 0.5 0  18.5 0.5 0  19 0.5 0  19.5 0.5 0  20 0.5 0  0 1 0  0.5 1 0  1 1 0  1.5 1 0  2 1 0  2.5 1 0  3 1 0  3.5 1 0  4 1 0  4.5 1 0  5 1 0  5.5 1 0  6 1 0  6.5 1 0  7 1 0  7.5 1 0  8 1 0  8.5 1 0  9 1 0  9.5 1 0  10 1 0  10.5 1 0  11 1 0  11.5 1 0  12 1 0  12.5 1 0  13 1 0  13.5 1 0  14 1 0  14.5 1 0  15 1 0  15.5 1 0  16 1 0  16.5 1 0  17 1 0  17.5 1 0  18 1 0  18.5 1 0  19 1 0  19.5 1 0  20 1 0  0 1.5 0  0.5 1.5 0  1 1.5 0  1.5 1.5 0  2 1.5 0  2.5 1.5 0  3 1.5 0  3.5 1.5 0  4 1.5 0  4.5 1.5 0  5 1.5 0  5.5 1.5 0  6 1.5 0  6.5 1.5 0  7 1.5 0  7.5 1.5 0  8 1.5 0  8.5 1.5 0  9 1.5 0  9.5 1.5 0  10 1.5 0  10.5 1.5 0  11 1.5 0  11.5 1.5 0  12 1.5 0  12.5 1.5 0  13 1.5 0  13.5 1.5 0  14 1.5 0  14.5 1.5 0  15 1.5 0  15.5 1.5 0  16 1.5 0  16.5 1.5 0  17 1.5 0  17.5 1.5 0  18 1.5 0  18.5 1.5 0  19 1.5 0  19.5 1.5 0  20 1.5 0  0 2 0  0.5 2 0  1 2 0  1.5 2 0  2 2 0  2.5 2 0  3 2 0  3.5 2 0  4 2 0  4.5 2 0  5 2 0  5.5 2 0  6 2 0  6.5 2 0  7 2 0  7.5 2 0  8 2 0  8.5 2 0  9 2 0  9.5 2 0  10 2 0  10.5 2 0  11 2 0  11.5 2 0  12 2 0  12.5 2 0  13 2 0  13.5 2 0  14 2 0  14.5 2 0  15 2 0  15.5 2 0  16 2 0  16.5 2 0  17 2 0  17.5 2 0  18 2 0  18.5 2 0  19 2 0  19.5 2 0  20 2 0  0 2.5 0  0.5 2.5 0  1 2.5 0  1.5 2.5 0  2 2.5 0  2.5 2.5 0  3 2.5 0  3.5 2.5 0  4 2.5 0  4.5 2.5 0  5 2.5 0  5.5 2.5 0  6 2.5 0  6.5 2.5 0  7 2.5 0  7.5 2.5 0  8 2.5 0  8.5 2.5 0  9 2.5 0  9.5 2.5 0  10 2.5 0  10.5 2.5 0  11 2.5 0  11.5 2.5 0  12 2.5 0  12.5 2.5 0  13 2.5 0  13.5 2.5 0  14 2.5 0  14.5 2.5 0  15 2.5 0  15.5 2.5 0  16 2.5 0  16.5 2.5 0  17 2.5 0  17.5 2.5 0  18 2.5 0  18.5 2.5 0  19 2.5 0  19.5 2.5 0  20 2.5 0  0 3 0  0.5 3 0  1 3 0  1.5 3 0  2 3 0  2.5 3 0  3 3 0  3.5 3 0  4 3 0  4.5 3 0  5 3 0  5.5 3 0  6 3 0  6.5 3 0  7 3 0  7.5 3 0  8 3 0  8.5 3 0  9 3 0  9.5 3 0  10 3 0  10.5 3 0  11 3 0  11.5 3 0  12 3 0  12.5 3 0  13 3 0  13.5 3 0  14 3 0  14.5 3 0  15 3 0  15.5 3 0  16 3 0  16.5 3 0  17 3 0  17.5 3 0  18 3 0  18.5 3 0  19 3 0  19.5 3 0  20 3 0  0 3.5 0  0.5 3.5 0  1 3.5 0  1.5 3.5 0  2 3.5 0  2.5 3.5 0  3 3.5 0  3.5 3.5 0  4 3.5 0  4.5 3.5 0  5 3.5 0  5.5 3.5 0  6 3.5 0  6.5 3.5 0  7 3.5 0  7.5 3.5 0  8 3.5 0  8.5 3.5 0  9 3.5 0  9.5 3.5 0  10 3.5 0  10.5 3.5 0  11 3.5 0  11.5 3.5 0  12 3.5 0  12.5 3.5 0  13 3.5 0  13.5 3.5 0  14 3.5 0  14.5 3.5 0  15 3.5 0  15.5 3.5 0  16 3.5 0  16.5 3.5 0  17 3.5 0  17.5 3.5 0  18 3.5 0  18.5 3.5 0  19 3.5 0  19.5 3.5 0  20 3.5 0  0 4 0  0.5 4 0  1 4 0  1.5 4 0  2 4 0  2.5 4 0  3 4 0  3.5 4 0  4 4 0  4.5 4 0  5 4 0  5.5 4 0  6 4 0  6.5 4 0  7 4 0  7.5 4 0  8 4 0  8.5 4 0  9 4 0  9.5 4 0  10 4 0  10.5 4 0  11 4 0  11.5 4 0  12 4 0  12.5 4 0  13 4 0  13.5 4 0  14 4 0  14.5 4 0  15 4 0  15.5 4 0  16 4 0  16.5 4 0  17 4 0  17.5 4 0  18 4 0  18.5 4 0  19 4 0  19.5 4 0  20 4 0  0 4.5 0  0.5 4.5 0  1 4.5 0  1.5 4.5 0  2 4.5 0  2.5 4.5 0  3 4.5 0  3.5 4.5 0  4 4.5 0  4.5 4.5 0  5 4.5 0  5.5 4.5 0  6 4.5 0  6.5 4.5 0  7 4.5 0  7.5 4.5 0  8 4.5 0  8.5 4.5 0  9 4.5 0  9.5 4.5 0  10 4.5 0  10.5 4.5 0  11 4.5 0  11.5 4.5 0  12 4.5 0  12.5 4.5 0  13 4.5 0  13.5 4.5 0  14 4.5 0  14.5 4.5 0  15 4.5 0  15.5 4.5 0  16 4.5 0  16.5 4.5 0  17 4.5 0  17.5 4.5 0  18 4.5 0  18.5 4.5 0  19 4.5 0  19.5 4.5 0  20 4.5 0  0 5 0  0.5 5 0  1 5 0  1.5 5 0  2 5 0  2.5 5 0  3 5 0  3.5 5 0  4 5 0  4.5 5 0  5 5 0  5.5 5 0  6 5 0  6.5 5 0  7 5 0  7.5 5 0  8 5 0  8.5 5 0  9 5 0  9.5 5 0  10 5 0  10.5 5 0  11 5 0  11.5 5 0  12 5 0  12.5 5 0  13 5 0  13.5 5 0  14 5 0  14.5 5 0  15 5 0  15.5 5 0  16 5 0  16.5 5 0  17 5 0  17.5 5 0  18 5 0  18.5 5 0  19 5 0  19.5 5 0  20 5 0  0 5.5 0  0.5 5.5 0  1 5.5 0  1.5 5.5 0  2 5.5 0  2.5 5.5 0  3 5.5 0  3.5 5.5 0  4 5.5 0  4.5 5.5 0  5 5.5 0  5.5 5.5 0  6 5.5 0  6.5 5.5 0  7 5.5 0  7.5 5.5 0  8 5.5 0  8.5 5.5 0  9 5.5 0  9.5 5.5 0  10 5.5 0  10.5 5.5 0  11 5.5 0  11.5 5.5 0  12 5.5 0  12.5 5.5 0  13 5.5 0  13.5 5.5 0  14 5.5 0  14.5 5.5 0  15 5.5 0  15.5 5.5 0  16 5.5 0  16.5 5.5 0  17 5.5 0  17.5 5.5 0  18 5.5 0  18.5 5.5 0  19 5.5 0  19.5 5.5 0  20 5.5 0  0 6 0  0.5 6 0  1 6 0  1.5 6 0  2 6 0  2.5 6 0  3 6 0  3.5 6 0  4 6 0  4.5 6 0  5 6 0  5.5 6 0  6 6 0  6.5 6 0  7 6 0  7.5 6 0  8 6 0  8.5 6 0  9 6 0  9.5 6 0  10 6 0  10.5 6 0  11 6 0  11.5 6 0  12 6 0  12.5 6 0  13 6 0  13.5 6 0  14 6 0  14.5 6 0  15 6 0  15.5 6 0  16 6 0  16.5 6 0  17 6 0  17.5 6 0  18 6 0  18.5 6 0  19 6 0  19.5 6 0  20 6 0  0 6.5 0  0.5 6.5 0  1 6.5 0  1.5 6.5 0  2 6.5 0  2.5 6.5 0  3 6.5 0  3.5 6.5 0  4 6.5 0  4.5 6.5 0  5 6.5 0  5.5 6.5 0  6 6.5 0  6.5 6.5 0  7 6.5 0  7.5 6.5 0  8 6.5 0  8.5 6.5 0  9 6.5 0  9.5 6.5 0  10 6.5 0  10.5 6.5 0  11 6.5 0  11.5 6.5 0  12 6.5 0  12.5 6.5 0  13 6.5 0  13.5 6.5 0  14 6.5 0  14.5 6.5 0  15 6.5 0  15.5 6.5 0  16 6.5 0  16.5 6.5 0  17 6.5 0  17.5 6.5 0  18 6.5 0  18.5 6.5 0  19 6.5 0  19.5 6.5 0  20 6.5 0  0 7 0  0.5 7 0  1 7 0  1.5 7 0  2 7 0  2.5 7 0  3 7 0  3.5 7 0  4 7 0  4.5 7 0  5 7 0  5.5 7 0  6 7 0  6.5 7 0  7 7 0  7.5 7 0  8 7 0  8.5 7 0  9 7 0  9.5 7 0  10 7 0  10.5 7 0  11 7 0  11.5 7 0  12 7 0  12.5 7 0  13 7 0  13.5 7 0  14 7 0  14.5 7 0  15 7 0  15.5 7 0  16 7 0  16.5 7 0  17 7 0  17.5 7 0  18 7 0  18.5 7 0  19 7 0  19.5 7 0  20 7 0  0 7.5 0  0.5 7.5 0  1 7.5 0  1.5 7.5 0  2 7.5 0  2.5 7.5 0  3 7.5 0  3.5 7.5 0  4 7.5 0  4.5 7.5 0  5 7.5 0  5.5 7.5 0  6 7.5 0  6.5 7.5 0  7 7.5 0  7.5 7.5 0  8 7.5 0  8.5 7.5 0  9 7.5 0  9.5 7.5 0  10 7.5 0  10.5 7.5 0  11 7.5 0  11.5 7.5 0  12 7.5 0  12.5 7.5 0  13 7.5 0  13.5 7.5 0  14 7.5 0  14.5 7.5 0  15 7.5 0  15.5 7.5 0  16 7.5 0  16.5 7.5 0  17 7.5 0  17.5 7.5 0  18 7.5 0  18.5 7.5 0  19 7.5 0  19.5 7.5 0  20 7.5 0  0 8 0  0.5 8 0  1 8 0  1.5 8 0  2 8 0  2.5 8 0  3 8 0  3.5 8 0  4 8 0  4.5 8 0  5 8 0  5.5 8 0  6 8 0  6.5 8 0  7 8 0  7.5 8 0  8 8 0  8.5 8 0  9 8 0  9.5 8 0  10 8 0  10.5 8 0  11 8 0  11.5 8 0  12 8 0  12.5 8 0  13 8 0  13.5 8 0  14 8 0  14.5 8 0  15 8 0  15.5 8 0  16 8 0  16.5 8 0  17 8 0  17.5 8 0  18 8 0  18.5 8 0  19 8 0  19.5 8 0  20 8 0  0 8.5 0  0.5 8.5 0  1 8.5 0  1.5 8.5 0  2 8.5 0  2.5 8.5 0  3 8.5 0  3.5 8.5 0  4 8.5 0  4.5 8.5 0  5 8.5 0  5.5 8.5 0  6 8.5 0  6.5 8.5 0  7 8.5 0  7.5 8.5 0  8 8.5 0  8.5 8.5 0  9 8.5 0  9.5 8.5 0  10 8.5 0  10.5 8.5 0  11 8.5 0  11.5 8.5 0  12 8.5 0  12.5 8.5 0  13 8.5 0  13.5 8.5 0  14 8.5 0  14.5 8.5 0  15 8.5 0  15.5 8.5 0  16 8.5 0  16.5 8.5 0  17 8.5 0  17.5 8.5 0  18 8.5 0  18.5 8.5 0  19 8.5 0  19.5 8.5 0  20 8.5 0  0 9 0  0.5 9 0  1 9 0  1.5 9 0  2 9 0  2.5 9 0  3 9 0  3.5 9 0  4 9 0  4.5 9 0  5 9 0  5.5 9 0  6 9 0  6.5 9 0  7 9 0  7.5 9 0  8 9 0  8.5 9 0  9 9 0  9.5 9 0  10 9 0  10.5 9 0  11 9 0  11.5 9 0  12 9 0  12.5 9 0  13 9 0  13.5 9 0  14 9 0  14.5 9 0  15 9 0  15.5 9 0  16 9 0  16.5 9 0  17 9 0  17.5 9 0  18 9 0  18.5 9 0  19 9 0  19.5 9 0  20 9 0  0 9.5 0  0.5 9.5 0  1 9.5 0  1.5 9.5 0  2 9.5 0  2.5 9.5 0  3 9.5 0  3.5 9.5 0  4 9.5 0  4.5 9.5 0  5 9.5 0  5.5 9.5 0  6 9.5 0  6.5 9.5 0  7 9.5 0  7.5 9.5 0  8 9.5 0  8.5 9.5 0  9 9.5 0  9.5 9.5 0  10 9.5 0  10.5 9.5 0  11 9.5 0  11.5 9.5 0  12 9.5 0  12.5 9.5 0  13 9.5 0  13.5 9.5 0  14 9.5 0  14.5 9.5 0  15 9.5 0  15.5 9.5 0  16 9.5 0  16.5 9.5 0  17 9.5 0  17.5 9.5 0  18 9.5 0  18.5 9.5 0  19 9.5 0  19.5 9.5 0  20 9.5 0  0 10 0  0.5 10 0  1 10 0  1.5 10 0  2 10 0  2.5 10 0  3 10 0  3.5 10 0  4 10 0  4.5 10 0  5 10 0  5.5 10 0  6 10 0  6.5 10 0  7 10 0  7.5 10 0  8 10 0  8.5 10 0  9 10 0  9.5 10 0  10 10 0  10.5 10 0  11 10 0  11.5 10 0  12 10 0  12.5 10 0  13 10 0  13.5 10 0  14 10 0  14.5 10 0  15 10 0  15.5 10 0  16 10 0  16.5 10 0  17 10 0  17.5 10 0  18 10 0  18.5 10 0  19 10 0  19.5 10 0  20 10 0  0 10.5 0  0.5 10.5 0  1 10.5 0  1.5 10.5 0  2 10.5 0  2.5 10.5 0  3 10.5 0  3.5 10.5 0  4 10.5 0  4.5 10.5 0  5 10.5 0  5.5 10.5 0  6 10.5 0  6.5 10.5 0  7 10.5 0  7.5 10.5 0  8 10.5 0  8.5 10.5 0  9 10.5 0  9.5 10.5 0  10 10.5 0  10.5 10.5 0  11 10.5 0  11.5 10.5 0  12 10.5 0  12.5 10.5 0  13 10.5 0  13.5 10.5 0  14 10.5 0  14.5 10.5 0  15 10.5 0  15.5 10.5 0  16 10.5 0  16.5 10.5 0  17 10.5 0  17.5 10.5 0  18 10.5 0  18.5 10.5 0  19 10.5 0  19.5 10.5 0  20 10.5 0  0 11 0  0.5 11 0  1 11 0  1.5 11 0  2 11 0  2.5 11 0  3 11 0  3.5 11 0  4 11 0  4.5 11 0  5 11 0  5.5 11 0  6 11 0  6.5 11 0  7 11 0  7.5 11 0  8 11 0  8.5 11 0  9 11 0  9.5 11 0  10 11 0  10.5 11 0  11 11 0  11.5 11 0  12 11 0  12.5 11 0  13 11 0  13.5 11 0  14 11 0  14.5 11 0  15 11 0  15.5 11 0  16 11 0  16.5 11 0  17 11 0  17.5 11 0  18 11 0  18.5 11 0  19 11 0  19.5 11 0  20 11 0  0 11.5 0  0.5 11.5 0  1 11.5 0  1.5 11.5 0  2 11.5 0  2.5 11.5 0  3 11.5 0  3.5 11.5 0  4 11.5 0  4.5 11.5 0  5 11.5 0  5.5 11.5 0  6 11.5 0  6.5 11.5 0  7 11.5 0  7.5 11.5 0  8 11.5 0  8.5 11.5 0  9 11.5 0  9.5 11.5 0  10 11.5 0  10.5 11.5 0  11 11.5 0  11.5 11.5 0  12 11.5 0  12.5 11.5 0  13 11.5 0  13.5 11.5 0  14 11.5 0  14.5 11.5 0  15 11.5 0  15.5 11.5 0  16 11.5 0  16.5 11.5 0  17 11.5 0  17.5 11.5 0  18 11.5 0  18.5 11.5 0  19 11.5 0  19.5 11.5 0  20 11.5 0  0 12 0  0.5 12 0  1 12 0  1.5 12 0  2 12 0  2.5 12 0  3 12 0  3.5 12 0  4 12 0  4.5 12 0  5 12 0  5.5 12 0  6 12 0  6.5 12 0  7 12 0  7.5 12 0  8 12 0  8.5 12 0  9 12 0  9.5 12 0  10 12 0  10.5 12 0  11 12 0  11.5 12 0  12 12 0  12.5 12 0  13 12 0  13.5 12 0  14 12 0  14.5 12 0  
[...]
<PointData  Vectors="f_5173-0"> 
<DataArray  type="Float64"  Name="f_5173-0"  NumberOfComponents="3" format="ascii">0.0000000000000000e+00 0.0000000000000000e+00 0.0000000000000000e+00  -9.9231354696533785e-07 0.0000000000000000e+00 0.0000000000000000e+00  -5.0480469377876052e-06 0.0000000000000000e+00 0.0000000000000000e+00  -1.6086028345624047e-05 0.0000000000000000e+00 0.0000000000000000e+00  -3.7560942955137997e-05 0.0000000000000000e+00 0.0000000000000000e+00  -7.2864531468779995e-05 0.0000000000000000e+00 0.0000000000000000e+00  -1.2533219058670134e-04 0.0000000000000000e+00 0.0000000000000000e+00  -1.9822366012692266e-04 0.0000000000000000e+00 0.0000000000000000e+00  -2.9470281809246621e-04 0.0000000000000000e+00 0.0000000000000000e+00  -4.1781671560754295e-04 0.0000000000000000e+00 0.0000000000000000e+00  -5.7047296839385071e-04 0.0000000000000000e+00 0.0000000000000000e+00  -7.5541476325992720e-04 0.0000000000000000e+00 0.0000000000000000e+00  -9.7519265389853487e-04 0.0000000000000000e+00 0.0000000000000000e+00  -1.2321320160571796e-03 0.0000000000000000e+00 0.0000000000000000e+00  -1.5282944901688165e-03 0.0000000000000000e+00 0.0000000000000000e+00  -1.8654308727950710e-03 0.0000000000000000e+00 0.0000000000000000e+00  -2.2449215839580967e-03 0.0000000000000000e+00 0.0000000000000000e+00  -2.6676988330955136e-03 0.0000000000000000e+00 0.0000000000000000e+00  -3.1341416618075246e-03 0.0000000000000000e+00 0.0000000000000000e+00  -3.6439308097649527e-03 0.0000000000000000e+00 0.0000000000000000e+00  -4.1958444085423499e-03 0.0000000000000000e+00 0.0000000000000000e+00  -4.7874673711082978e-03 0.0000000000000000e+00 0.0000000000000000e+00  -5.4147765043931371e-03 0.0000000000000000e+00 0.0000000000000000e+00  -6.0715493670684276e-03 0.0000000000000000e+00 0.0000000000000000e+00  -6.7485274174855286e-03 0.0000000000000000e+00 0.0000000000000000e+00  -7.4322430321119215e-03 0.0000000000000000e+00 0.0000000000000000e+00  -8.1033959376389120e-03 0.0000000000000000e+00 0.0000000000000000e+00  -8.7346384132139642e-03 0.0000000000000000e+00 0.0000000000000000e+00  -9.2876016260143579e-03 0.0000000000000000e+00 0.0000000000000000e+00  -9.7089690209671460e-03 0.0000000000000000e+00 0.0000000000000000e+00  -9.9253772676514227e-03 0.0000000000000000e+00 0.0000000000000000e+00  -9.8368989062645323e-03 0.0000000000000000e+00 0.0000000000000000e+00  -9.3088267846560147e-03 0.0000000000000000e+00 0.0000000000000000e+00  -8.1614239057785590e-03 0.0000000000000000e+00 0.0000000000000000e+00  -6.1571963166294399e-03 0.0000000000000000e+00 0.0000000000000000e+00  -2.9850450312755889e-03 0.0000000000000000e+00 0.0000000000000000e+00  1.7597224214271753e-03 0.0000000000000000e+00 0.0000000000000000e+00  8.6012325105664211e-03 0.0000000000000000e+00 0.0000000000000000e+00  1.8217785558847337e-02 0.0000000000000000e+00 0.0000000000000000e+00  3.1491737597364185e-02 0.0000000000000000e+00 0.0000000000000000e+00  4.9594747749878688e-02 0.0000000000000000e+00 0.0000000000000000e+00  0.0000000000000000e+00 -9.9231354777298546e-07 0.0000000000000000e+00  1.1913163647514713e-06 1.1913163648491918e-06 0.0000000000000000e+00  -1.2488495760792428e-06 6.6237779030890596e-06 0.0000000000000000e+00  -1.0598785614059991e-05 1.5366623514450203e-05 0.0000000000000000e+00  -3.0346708748226138e-05 2.7489960816441820e-05 0.0000000000000000e+00  -6.3912285790423167e-05 4.2981056179524656e-05 0.0000000000000000e+00  -1.1464134012372587e-04 6.1782620872817418e-05 0.0000000000000000e+00  -1.8579813678209434e-04 8.3811225978378616e-05 0.0000000000000000e+00  -2.8054975759407677e-04 1.0896259546531408e-04 0.0000000000000000e+00  -4.0194664939549585e-04 1.3711215833507367e-04 0.0000000000000000e+00  -5.5290053709826966e-04 1.6811406841954696e-04 0.0000000000000000e+00  -7.3615963442953734e-04 2.0179972884214477e-04 0.0000000000000000e+00  -9.5428053217722010e-04 2.3797615918044973e-04 0.0000000000000000e+00  -1.2095956964424067e-03 2.7642434011859040e-04 0.0000000000000000e+00  -1.5041749227646169e-03 3.1689761743279539e-04 0.0000000000000000e+00  -1.8397782105278107e-03 3.5912023856885260e-04 0.0000000000000000e+00  -2.2177961822040333e-03 4.0278610005918986e-04 0.0000000000000000e+00  -2.6391721653635141e-03 4.4755779347638021e-04 0.0000000000000000e+00  -3.1042971095895785e-03 4.9306604893912653e-04 0.0000000000000000e+00  -3.6128642781262685e-03 5.3890968741799651e-04 0.0000000000000000e+00  -4.1636647121048101e-03 5.8465620572715463e-04 0.0000000000000000e+00  -4.7542963288871943e-03 6.2984313011865852e-04 0.0000000000000000e+00  -5.3807486775148596e-03 6.7398028390326236e-04 0.0000000000000000e+00  -6.0368113724794600e-03 7.1655311851255110e-04 0.0000000000000000e+00  -6.7132367556324265e-03 7.5702724963475629e-04 0.0000000000000000e+00  -7.3965663784381830e-03 7.9485431275544004e-04 0.0000000000000000e+00  -8.0675068653503317e-03 8.2947919425447215e-04 0.0000000000000000e+00  -8.6987145297476587e-03 8.6034859318088910e-04 0.0000000000000000e+00  -9.2518210974775732e-03 8.8692071399001471e-04 0.0000000000000000e+00  -9.6735063861204118e-03 9.0867567916641295e-04 0.0000000000000000e+00  -9.8903982357130254e-03 9.2512599391846365e-04 0.0000000000000000e+00  -9.8025533831347638e-03 9.3582612713376972e-04 0.0000000000000000e+00  -9.2752385280704917e-03 9.4038005479378387e-04 0.0000000000000000e+00  -8.1286737760684451e-03 9.3844552798493712e-04 0.0000000000000000e+00  -6.1252938735809163e-03 9.2973395520510086e-04 0.0000000000000000e+00  -2.9538803659504066e-03 9.1400505339004734e-04 0.0000000000000000e+00  1.7904558407421914e-03 8.9105480733076697e-04 0.0000000000000000e+00  8.6321361879715536e-03 8.6068757436740179e-04 0.0000000000000000e+00  1.8249719906073408e-02 8.2261516050899375e-04 0.0000000000000000e+00  3.1524263227608262e-02 7.7597235003275960e-04 0.0000000000000000e+00  4.9608997876753470e-02 7.1696162906418703e-04 0.0000000000000000e+00  0.0000000000000000e+00 -5.0480469393674809e-06 0.0000000000000000e+00  6.6237779019710472e-06 -1.2488495754324804e-06 0.0000000000000000e+00  9.4461943611924227e-06 9.4461943612390552e-06 0.0000000000000000e+00  5.3064354626334678e-06 2.6966860024494927e-05 0.0000000000000000e+00  -9.2323799146351287e-06 5.1281419558681667e-05 0.0000000000000000e+00  -3.7582991637500731e-05 8.2317470590851218e-05 0.0000000000000000e+00  -8.3097148454548968e-05 1.1995854595366617e-04 0.0000000000000000e+00  -1.4904733831559206e-04 1.6404483018281734e-04 0.0000000000000000e+00  -2.3860974987301484e-04 2.1437437341605131e-04 0.0000000000000000e+00  -3.5484531661871368e-04 2.7070297472647282e-04 0.0000000000000000e+00  -5.0067826061210065e-04 3.3274268482329596e-04 0.0000000000000000e+00  -6.7887177363642201e-04 4.0015938728195442e-04 0.0000000000000000e+00  -8.9200021552042681e-04 4.7256987971145846e-04 0.0000000000000000e+00  -1.1424167954783863e-03 5.4953875796608044e-04 0.0000000000000000e+00  -1.4322151026763296e-03 6.3057532790943710e-04 0.0000000000000000e+00  -1.7631819556949071e-03 7.1513073462574123e-04 0.0000000000000000e+00  -2.1367376901644339e-03 8.0259549218973886e-04 0.0000000000000000e+00  -2.5538579904966861e-03 8.9229760541555657e-04 0.0000000000000000e+00  -3.0149684212744188e-03 9.8350149104280528e-04 0.0000000000000000e+00  -3.5197985785023578e-03 1.0754079251387592e-03 0.0000000000000000e+00  -4.0671768370667332e-03 1.1671552632684500e-03 0.0000000000000000e+00  -4.6547385342129632e-03 1.2578221976764919e-03 0.0000000000000000e+00  -5.2785095928965147e-03 1.3464323264721089e-03 0.0000000000000000e+00  -5.9323135938080616e-03 1.4319608090013803e-03 0.0000000000000000e+00  -6.6069328459359344e-03 1.5133433592360770e-03 0.0000000000000000e+00  -7.2889330671758517e-03 1.5894877745677451e-03 0.0000000000000000e+00  -7.9590372799135979e-03 1.6592880958432074e-03 0.0000000000000000e+00  -8.5899083630228256e-03 1.7216413318639678e-03 0.0000000000000000e+00  -9.1431727009791634e-03 1.7754664462219698e-03 0.0000000000000000e+00  -9.5654908522985159e-03 1.8197249944063778e-03 0.0000000000000000e+00  -9.7834555429711281e-03 1.8534424280312089e-03 0.0000000000000000e+00  -9.6970705471695912e-03 1.8757286778977381e-03 0.0000000000000000e+00  -9.1715293486577948e-03 1.8857962125302273e-03 0.0000000000000000e+00  -8.0269551561677338e-03 1.8829732872839902e-03 0.0000000000000000e+00  -6.0256570297947780e-03 1.8667091791334663e-03 0.0000000000000000e+00  -2.8562556707227879e-03 1.8365654292221722e-03 0.0000000000000000e+00  1.8863356682038458e-03 1.7921777849466834e-03 0.0000000000000000e+00  8.7267414706125659e-03 1.7331429993622408e-03 0.0000000000000000e+00  1.8343553742929994e-02 1.6586911012197649e-03 0.0000000000000000e+00  3.1617002359884579e-02 1.5667515841761741e-03 0.0000000000000000e+00  4.9697177923962242e-02 1.4515551834404900e-03 0.0000000000000000e+00  0.0000000000000000e+00 -1.6086028344411702e-05 0.0000000000000000e+00  1.5366623514347438e-05 -1.0598785611986254e-05 0.0000000000000000e+00  2.6966860021650618e-05 5.3064354633088326e-06 0.0000000000000000e+00  3.1543268249294582e-05 3.1543268250055008e-05 0.0000000000000000e+00  2.5701763499135954e-05 6.8018266016318116e-05 0.0000000000000000e+00  6.0405924705216988e-06 1.1459771770292792e-04 0.0000000000000000e+00  -3.0792625351458834e-05 1.7109464385100975e-04 0.0000000000000000e+00  -8.8077468794393079e-05 2.3726633255964722e-04 0.0000000000000000e+00  -1.6900182834050107e-04 3.1281207068613797e-04 0.0000000000000000e+00  -2.7664243084321246e-04 3.9737010828287933e-04 0.0000000000000000e+00  -4.1394346650219500e-04 4.9051396789374512e-04 0.0000000000000000e+00  -5.8369255419858342e-04 5.9174822808440619e-04 0.0000000000000000e+00  -7.8849323387518151e-04 7.0050394555649866e-04 0.0000000000000000e+00  -1.0307328654060111e-03 8.1613392008555140e-04 0.0000000000000000e+00  -1.3125442572234905e-03 9.3790803220862497e-04 0.0000000000000000e+00  -1.6357584666703165e-03 1.0650089020712910e-03 0.0000000000000000e+00  -2.0018448665686519e-03 1.1965281367424488e-03 0.0000000000000000e+00  -2.4118325578095456e-03 1.3314634561410253e-03 0.0000000000000000e+00  -2.8662042546102160e-03 1.4687170136411317e-03 0.0000000000000000e+00  -3.3647495314411374e-03 1.6070952548748484e-03 0.0000000000000000e+00  -3.9063583758647200e-03 1.7453106838855145e-03 0.0000000000000000e+00  -4.4887278569784991e-03 1.8819859259275869e-03 0.0000000000000000e+00  -5.1079438891006327e-03 2.0156604847863164e-03 0.0000000000000000e+00  -5.7578860880580854e-03 2.1448005821075268e-03 0.0000000000000000e+00  -6.4293862791902825e-03 2.2678124257468142e-03 0.0000000000000000e+00  -7.1090503087307038e-03 2.3830591702255458e-03 0.0000000000000000e+00  -7.7776288431585352e-03 2.4888816886986364e-03 0.0000000000000000e+00  -8.4077967220720674e-03 2.5836230557166194e-03 0.0000000000000000e+00  -8.9611734686423864e-03 2.6656563285527902e-03 0.0000000000000000e+00  -9.3843910625689749e-03 2.7334148014043890e-03 0.0000000000000000e+00  -9.6039894488731872e-03 2.7854233840198797e-03 0.0000000000000000e+00  -9.5198934597499774e-03 2.8203291048900358e-03 0.0000000000000000e+00  -8.9971901112422172e-03 2.8369278785987002e-03 0.0000000000000000e+00  -7.8558680448527225e-03 2.8341833325171515e-03 0.0000000000000000e+00  -5.8580748721096801e-03 2.8112308718225296e-03 0.0000000000000000e+00  -2.6922498388295213e-03 2.7673542592241444e-03 0.0000000000000000e+00  2.0468702900410161e-03 2.7019081999086745e-03 0.0000000000000000e+00  8.8840029536789954e-03 2.6141299950215601e-03 0.0000000000000000e+00  1.8497529202085590e-02 2.5027268255425764e-03 0.0000000000000000e+00  3.1766643824911733e-02 2.3650687939286139e-03 0.0000000000000000e+00  4.9838862879423004e-02 2.1959974486300987e-03 0.0000000000000000e+00  0.0000000000000000e+00 -3.7560942951431320e-05 0.0000000000000000e+00  2.7489960815497490e-05 -3.0346708747030585e-05 0.0000000000000000e+00  5.1281419557513906e-05 -9.2323799149435266e-06 0.0000000000000000e+00  6.8018266016743909e-05 2.5701763495001911e-05 0.0000000000000000e+00  7.4319948272003609e-05 7.4319948271591219e-05 0.0000000000000000e+00  6.6792537842881309e-05 1.3643427456396152e-04 0.0000000000000000e+00  4.2081812749295659e-05 2.1179197961544602e-04 0.0000000000000000e+00  -3.1004101022854205e-06 3.0007033551401533e-04 0.0000000000000000e+00  -7.1956493040900113e-05 4.0087239590591475e-04 0.0000000000000000e+00  -1.6758352605065390e-04 5.1372213871546521e-04 0.0000000000000000e+00  -2.9295224043857744e-04 6.3805887594315378e-04 0.0000000000000000e+00  -4.5088332699431331e-04 7.7323110203783368e-04 0.0000000000000000e+00  -6.4402025687129889e-04 9.1848999852833660e-04 0.0000000000000000e+00  -8.7479742090311181e-04 1.0729828287328138e-03 0.0000000000000000e+00  -1.1454018588819301e-03 1.2357464834205642e-03 0.0000000000000000e+00  -1.4577259754300187e-03 1.4057014737905015e-03 0.0000000000000000e+00  -1.8133072943004726e-03 1.5816467079097206e-03 0.0000000000000000e+00  -2.2132492886123528e-03 1.7622554279397669e-03 0.0000000000000000e+00  -2.6581143707717705e-03 1.9460727265392906e-03 0.0000000000000000e+00  -3.1477758880092796e-03 2.1315150995996836e-03 0.0000000000000000e+00  -3.6812100264720466e-03 2.3168725258898969e-03 0.0000000000000000e+00  -4.2562003976911204e-03 2.5003135868945795e-03 0.0000000000000000e+00  -4.8689172624396988e-03 2.6798941457939814e-03 0.0000000000000000e+00  -5.5133193839697068e-03 2.8535700830544584e-03 0.0000000000000000e+00  -6.1803090942960373e-03 3.0192145252299963e-03 0.0000000000000000e+00  -6.8565502915496086e-03 3.1746398877910264e-03 0.0000000000000000e+00  -7.5228351729255821e-03 3.3176248634924107e-03 0.0000000000000000e+00  -8.1518594506213814e-03 3.4459462048663054e-03 0.0000000000000000e+00  -8.7052388999765539e-03 3.5574147521613975e-03 0.0000000000000000e+00  -9.1295736465864617e-03 3.6499146232332976e-03 0.0000000000000000e+00  -9.3513410158765579e-03 3.7214437801473660e-03 0.0000000000000000e+00  -9.2703710363179568e-03 3.7701532597400446e-03 0.0000000000000000e+00  -8.7516241422198708e-03 3.7943810650693066e-03 0.0000000000000000e+00  -7.6149339463005014e-03 3.7926747376037890e-03 0.0000000000000000e+00  -5.6222733466463910e-03 3.7637932685607102e-03 0.0000000000000000e+00  -2.4619072796476017e-03 3.7066729648405961e-03 0.0000000000000000e+00  2.2715569778641491e-03 3.6203313796317818e-03 0.0000000000000000e+00  9.1028281291528554e-03 3.5036681266457812e-03 0.0000000000000000e+00  1.8709966990775137e-02 3.3551107036040168e-03 0.0000000000000000e+00  3.1971316537046539e-02 3.1720902999326163e-03 0.0000000000000000e+00  5.0033196400551566e-02 2.9505317422910847e-03 0.0000000000000000e+00  0.0000000000000000e+00 -7.2864531463915735e-05 0.0000000000000000e+00  4.2981056180695520e-05 -6.3912285788594362e-05 0.0000000000000000e+00  8.2317470590284844e-05 -3.7582991640260710e-05 0.0000000000000000e+00  1.1459771770279884e-04 6.0405924680251082e-06 0.0000000000000000e+00  1.3643427456190503e-04 6.6792537842648924e-05 0.0000000000000000e+00  1.4443713641861471e-04 1.4443713641698049e-04 0.0000000000000000e+00  1.3524904769670977e-04 2.3866122059260471e-04 0.0000000000000000e+00  1.0557157501559994e-04 3.4906753110424185e-04 0.0000000000000000e+00  5.2185054176298731e-05 4.7516870168465595e-04 0.0000000000000000e+00  -2.8032278921089362e-05 6.1638066967908175e-04 0.0000000000000000e+00  -1.3808374055056168e-04 7.7201529702869746e-04 0.0000000000000000e+00  -2.8083107526363505e-04 9.4127232993144918e-04 0.0000000000000000e+00  -4.5896775449541044e-04 1.1232309311020917e-03 0.0000000000000000e+00  -6.7498745399457787e-04 1.3168410649480452e-03 0.0000000000000000e+00  -9.3114593261986738e-04 1.5209150548428085e-03 0.0000000000000000e+00  -1.2294136600854209e-03 1.7341196757621189e-03 0.0000000000000000e+00  -1.5714151945622407e-03 1.9549691955390146e-03 0.0000000000000000e+00  -1.9583492941212160e-03 2.1818198316646453e-03 0.0000000000000000e+00  -2.3908807912389500e-03 2.4128661443530452e-03 0.0000000000000000e+00  -2.8689910222687081e-03 2.6461399370951229e-03 0.0000000000000000e+00  -3.3917676651017501e-03 2.8795122779255180e-03 0.0000000000000000e+00  -3.9571067181189854e-03 3.1106992816445646e-03 0.0000000000000000e+00  -4.5612885513744723e-03 3.3372722971580521e-03 0.0000000000000000e+00  -5.1983760244804483e-03 3.5566731127015458e-03 0.0000000000000000e+00  -5.8593652963303327e-03 3.7662347114568230e-03 0.0000000000000000e+00  -6.5309991393715421e-03 3.9632079627878961e-03 0.0000000000000000e+00  -7.1941287258030341e-03 4.1447943992152453e-03 0.0000000000000000e+00  -7.8214838763240729e-03 4.3081848831828589e-03 0.0000000000000000e+00  -8.3746849534298718e-03 4.4506034842201215e-03 0.0000000000000000e+00  -8.8003032340481756e-03 4.5693552360781915e-03 0.0000000000000000e+00  -9.0247511203597995e-03 4.6618755856241536e-03 0.0000000000000000e+00  -8.9477569675577382e-03 4.7257782173713587e-03 0.0000000000000000e+00  -8.4341450470939612e-03 4.7588964267950909e-03 0.0000000000000000e+00  -7.3035850889621437e-03 4.7593111181879078e-03 0.0000000000000000e+00  -5.3178724504398464e-03 4.7253555043516573e-03 0.0000000000000000e+00  -2.1651070889367073e-03 4.6555823803239582e-03 0.0000000000000000e+00  2.5602104503246949e-03 4.5486747453654299e-03 0.0000000000000000e+00  9.3827660400486960e-03 4.4032772506520977e-03 0.0000000000000000e+00  1.8980384685758182e-02 4.2177329379889999e-03 0.0000000000000000e+00  3.2230960981426443e-02 3.9897427710235541e-03 0.0000000000000000e+00  5.0280584998134759e-02 3.7160210588297179e-03 0.0000000000000000e+00  0.0000000000000000e+00 -1.2533219058460907e-04 0.0000000000000000e+00  6.1782620872666280e-05 -1.1464134012092703e-04 0.0000000000000000e+00  1.1995854595003046e-04 -8.3097148456206347e-05 0.0000000000000000e+00  1.7109464384759476e-04 -3.0792625352149064e-05 0.0000000000000000e+00  2.1179197961308853e-04 4.2081812748043155e-05 0.0000000000000000e+00  2.3866122059138195e-04 1.3524904769465776e-04 0.0000000000000000e+00  2.4834151103004772e-04 2.4834151103303063e-04 0.0000000000000000e+00  2.3752334510316643e-04 3.8089400564048190e-04 0.0000000000000000e+00  2.0296777308444864e-04 5.3233615096506283e-04 0.0000000000000000e+00  1.4152486114055930e-04 7.0198405705201199e-04 0.0000000000000000e+00  5.0153471981067259e-05 8.8903109257363667e-04 0.0000000000000000e+00  -7.4056365698015812e-05 1.0925378683089165e-03 0.0000000000000000e+00  -2.3385740540434160e-04 1.3114216797952452e-03 0.0000000000000000e+00  -4.3181413688826996e-04 1.5444457217180041e-03 0.0000000000000000e+00  -6.7026491011151572e-04 1.7902084434506546e-03 0.0000000000000000e+00  -9.5127451895911201e-04 2.0471334740097048e-03 0.0000000000000000e+00  -1.2765731849610450e-03 2.3134606079957356e-03 0.0000000000000000e+00  -1.6474758610455866e-03 2.5872384111590269e-03 0.0000000000000000e+00  -2.0647728187870133e-03 2.8663190713315453e-03 0.0000000000000000e+00  -2.5285782465390440e-03 3.1483561835525999e-03 0.0000000000000000e+00  -3.0381176528213307e-03 3.4308062108096612e-03 0.0000000000000000e+00  -3.5914267617638477e-03 3.7109343958168029e-03 0.0000000000000000e+00  -4.1849238067851640e-03 3.9858259047299647e-03 0.0000000000000000e+00  -4.8128032254809066e-03 4.2524029466775417e-03 0.0000000000000000e+00  -5.4661814372537381e-03 4.5074485175486201e-03 0.0000000000000000e+00  -6.1319046373768133e-03 4.7476372427865234e-03 0.0000000000000000e+00  -6.7909047776252415e-03 4.9695735188548138e-03 0.0000000000000000e+00  -7.4159640253558074e-03 5.1698367508598402e-03 0.0000000000000000e+00  -7.9687212961601292e-03 5.3450329264231053e-03 0.0000000000000000e+00  -8.3957282312929100e-03 5.4918510220332718e-03 0.0000000000000000e+00  -8.6233366534952550e-03 5.6071217739525423e-03 0.0000000000000000e+00  -8.5511731259155597e-03 5.6878751218169170e-03 0.0000000000000000e+00  -8.0439222254226391e-03 5.7313911044774603e-03 0.0000000000000000e+00  -6.9210844462050496e-03 5.7352371152538497e-03 0.0000000000000000e+00  -4.9442717643559484e-03 5.6972822257512438e-03 0.0000000000