<?xml version="1.0"?>
<VTKFile type="UnstructuredGrid"  version="0.1"  >
<UnstructuredGrid>
<Piece  NumberOfPoints="1681" NumberOfCells="3200">
<Points>
<DataArray  type="Float64"  NumberOfComponents="3"  format="ascii">0 0 0  0.5 0 0  1 0 0  1.5 0 0  2 0 0  2.5 0 0  3 0 0  3.5 0 0  4 0 0  4.5 0 0  5 0 0  5.5 0 0  6 0 0  6.5 0 0  7 0 0  7.5 0 0  8 0 0  8.5 0 0  9 0 0  9.5 0 0  10 0 0  10.5 0 0  11 0 0  11.5 0 0  12 0 0  12.5 0 0  13 0 0  13.5 0 0  14 0 0  14.5 0 0  15 0 0  15.5 0 0  16 0 0  16.5 0 0  17 0 0  17.5 0 0  18 0 0  18.5 0 0  19 0 0  19.5 0 0  20 0 0  0 0.5 0  0.5 0.5 0  1 0.5 0  1.5 0.5 0  2 0.5 0  2.5 0.5 0  3 0.5 0  3.5 0.5 0  4 0.5 0  4.5 0.5 0  5 0.5 0  5.5 0.5 0  6 0.5 0  6.5 0.5 0  7 0.5 0  7.5 0.5 0  8 0.5 0  8.5 0.5 0  9 0.5 0  9.5 0.5 0  10 0.5 0  10.5 0.5 0  11 0.5 0  11.5 0.5 0  12 0.5 0  12.5 0.5 0  13 0.5 0  13.5 0.5 0  14 0.5 0  14.5 0.5 0  15 0.5 0  15.5 0.5 0  16 0.5 0  16.5 0.5 0  17 0.5 0  17.5 0.5 0  18 0.5 0  18.5 0.5 0  19 0.5 0  19.5 0.5 0  20 0.5 0  0 1 0  0.5 1 0  1 1 0  1.5 1 0  2 1 0  2.5 1 0  3 1 0  3.5 1 0  4 1 0  4.5 1 0  5 1 0  5.5 1 0  6 1 0  6.5 1 0  7 1 0  7.5 1 0  8 1 0  8.5 1 0  9 1 0  9.5 1 0  10 1 0  10.5 1 0  11 1 0  11.5 1 0  12 1 0  12.5 1 0  13 1 0  13.5 1 0  14 1 0  14.5 1 0  15 1 0  15.5 1 0  16 1 0  16.5 1 0  17 1 0  17.5 1 0  18 1 0  18.5 1 0  19 1 0  19.5 1 0  20 1 0  0 1.5 0  0.5 1.5 0  1 1.5 0  1.5 1.5 0  2 1.5 0  2.5 1.5 0  3 1.5 0  3.5 1.5 0  4 1.5 0  4.5 1.5 0  5 1.5 0  5.5 1.5 0  6 1.5 0  6.5 1.5 0  7 1.5 0  7.5 1.5 0  8 1.5 0  8.5 1.5 0  9 1.5 0  9.5 1.5 0  10 1.5 0  10.5 1.5 0  11 1.5 0  11.5 1.5 0  12 1.5 0  12.5 1.5 0  13 1.5 0  13.5 1.5 0  14 1.5 0  14.5 1.5 0  15 1.5 0  15.5 1.5 0  16 1.5 0  16.5 1.5 0  17 1.5 0  17.5 1.5 0  18 1.5 0  18.5 1.5 0  19 1.5 0  19.5 1.5 0  20 1.5 0  0 2 0  0.5 2 0  1 2 0  1.5 2 0  2 2 0  2.5 2 0  3 2 0  3.5 2 0  4 2 0  4.5 2 0  5 2 0  5.5 2 0  6 2 0  6.5 2 0  7 2 0  7.5 2 0  8 2 0  8.5 2 0  9 2 0  9.5 2 0  10 2 0  10.5 2 0  11 2 0  11.5 2 0  12 2 0  12.5 2 0  13 2 0  13.5 2 0  14 2 0  14.5 2 0  15 2 0  15.5 2 0  16 2 0  16.5 2 0  17 2 0  17.5 2 0  18 2 0  18.5 2 0  19 2 0  19.5 2 0  20 2 0  0 2.5 0  0.5 2.5 0  1 2.5 0  1.5 2.5 0  2 2.5 0  2.5 2.5 0  3 2.5 0  3.5 2.5 0  4 2.5 0  4.5 2.5 0  5 2.5 0  5.5 2.5 0  6 2.5 0  6.5 2.5 0  7 2.5 0  7.5 2.5 0  8 2.5 0  8.5 2.5 0  9 2.5 0  9.5 2.5 0  10 2.5 0  10.5 2.5 0  11 2.5 0  11.5 2.5 0  12 2.5 0  12.5 2.5 0  13 2.5 0  13.5 2.5 0  14 2.5 0  14.5 2.5 0  15 2.5 0  15.5 2.5 0  16 2.5 0  16.5 2.5 0  17 2.5 0  17.5 2.5 0  18 2.5 0  18.5 2.5 0  19 2.5 0  19.5 2.5 0  20 2.5 0  0 3 0  0.5 3 0  1 3 0  1.5 3 0  2 3 0  2.5 3 0  3 3 0  3.5 3 0  4 3 0  4.5 3 0  5 3 0  5.5 3 0  6 3 0  6.5 3 0  7 3 0  7.5 3 0  8 3 0  8.5 3 0  9 3 0  9.5 3 0  10 3 0  10.5 3 0  11 3 0  11.5 3 0  12 3 0  12.5 3 0  13 3 0  13.5 3 0  14 3 0  14.5 3 0  15 3 0  15.5 3 0  16 3 0  16.5 3 0  17 3 0  17.5 3 0  18 3 0  18.5 3 0  19 3 0  19.5 3 0  20 3 0  0 3.5 0  0.5 3.5 0  1 3.5 0  1.5 3.5 0  2 3.5 0  2.5 3.5 0  3 3.5 0  3.5 3.5 0  4 3.5 0  4.5 3.5 0  5 3.5 0  5.5 3.5 0  6 3.5 0  6.5 3.5 0  7 3.5 0  7.5 3.5 0  8 3.5 0  8.5 3.5 0  9 3.5 0  9.5 3.5 0  10 3.5 0  10.5 3.5 0  11 3.5 0  11.5 3.5 0  12 3.5 0  12.5 3.5 0  13 3.5 0  13.5 3.5 0  14 3.5 0  14.5 3.5 0  15 3.5 0  15.5 3.5 0  16 3.5 0  16.5 3.5 0  17 3.5 0  17.5 3.5 0  18 3.5 0  18.5 3.5 0  19 3.5 0  19.5 3.5 0  20 3.5 0  0 4 0  0.5 4 0  1 4 0  1.5 4 0  2 4 0  2.5 4 0  3 4 0  3.5 4 0  4 4 0  4.5 4 0  5 4 0  5.5 4 0  6 4 0  6.5 4 0  7 4 0  7.5 4 0  8 4 0  8.5 4 0  9 4 0  9.5 4 0  10 4 0  10.5 4 0  11 4 0  11.5 4 0  12 4 0  12.5 4 0  13 4 0  13.5 4 0  14 4 0  14.5 4 0  15 4 0  15.5 4 0  16 4 0  16.5 4 0  17 4 0  17.5 4 0  18 4 0  18.5 4 0  19 4 0  19.5 4 0  20 4 0  0 4.5 0  0.5 4.5 0  1 4.5 0  1.5 4.5 0  2 4.5 0  2.5 4.5 0  3 4.5 0  3.5 4.5 0  4 4.5 0  4.5 4.5 0  5 4.5 0  5.5 4.5 0  6 4.5 0  6.5 4.5 0  7 4.5 0  7.5 4.5 0  8 4.5 0  8.5 4.5 0  9 4.5 0  9.5 4.5 0  10 4.5 0  10.5 4.5 0  11 4.5 0  11.5 4.5 0  12 4.5 0  12.5 4.5 0  13 4.5 0  13.5 4.5 0  14 4.5 0  14.5 4.5 0  15 4.5 0  15.5 4.5 0  16 4.5 0  16.5 4.5 0  17 4.5 0  17.5 4.5 0  18 4.5 0  18.5 4.5 0  19 4.5 0  19.5 4.5 0  20 4.5 0  0 5 0  0.5 5 0  1 5 0  1.5 5 0  2 5 0  2.5 5 0  3 5 0  3.5 5 0  4 5 0  4.5 5 0  5 5 0  5.5 5 0  6 5 0  6.5 5 0  7 5 0  7.5 5 0  8 5 0  8.5 5 0  9 5 0  9.5 5 0  10 5 0  10.5 5 0  11 5 0  11.5 5 0  12 5 0  12.5 5 0  13 5 0  13.5 5 0  14 5 0  14.5 5 0  15 5 0  15.5 5 0  16 5 0  16.5 5 0  17 5 0  17.5 5 0  18 5 0  18.5 5 0  19 5 0  19.5 5 0  20 5 0  0 5.5 0  0.5 5.5 0  1 5.5 0  1.5 5.5 0  2 5.5 0  2.5 5.5 0  3 5.5 0  3.5 5.5 0  4 5.5 0  4.5 5.5 0  5 5.5 0  5.5 5.5 0  6 5.5 0  6.5 5.5 0  7 5.5 0  7.5 5.5 0  8 5.5 0  8.5 5.5 0  9 5.5 0  9.5 5.5 0  10 5.5 0  10.5 5.5 0  11 5.5 0  11.5 5.5 0  12 5.5 0  12.5 5.5 0  13 5.5 0  13.5 5.5 0  14 5.5 0  14.5 5.5 0  15 5.5 0  15.5 5.5 0  16 5.5 0  16.5 5.5 0  17 5.5 0  17.5 5.5 0  18 5.5 0  18.5 5.5 0  19 5.5 0  19.5 5.5 0  20 5.5 0  0 6 0  0.5 6 0  1 6 0  1.5 6 0  2 6 0  2.5 6 0  3 6 0  3.5 6 0  4 6 0  4.5 6 0  5 6 0  5.5 6 0  6 6 0  6.5 6 0  7 6 0  7.5 6 0  8 6 0  8.5 6 0  9 6 0  9.5 6 0  10 6 0  10.5 6 0  11 6 0  11.5 6 0  12 6 0  12.5 6 0  13 6 0  13.5 6 0  14 6 0  14.5 6 0  15 6 0  15.5 6 0  16 6 0  16.5 6 0  17 6 0  17.5 6 0  18 6 0  18.5 6 0  19 6 0  19.5 6 0  20 6 0  0 6.5 0  0.5 6.5 0  1 6.5 0  1.5 6.5 0  2 6.5 0  2.5 6.5 0  3 6.5 0  3.5 6.5 0  4 6.5 0  4.5 6.5 0  5 6.5 0  5.5 6.5 0  6 6.5 0  6.5 6.5 0  7 6.5 0  7.5 6.5 0  8 6.5 0  8.5 6.5 0  9 6.5 0  9.5 6.5 0  10 6.5 0  10.5 6.5 0  11 6.5 0  11.5 6.5 0  12 6.5 0  12.5 6.5 0  13 6.5 0  13.5 6.5 0  14 6.5 0  14.5 6.5 0  15 6.5 0  15.5 6.5 0  16 6.5 0  16.5 6.5 0  17 6.5 0  17.5 6.5 0  18 6.5 0  18.5 6.5 0  19 6.5 0  19.5 6.5 0  20 6.5 0  0 7 0  0.5 7 0  1 7 0  1.5 7 0  2 7 0  2.5 7 0  3 7 0  3.5 7 0  4 7 0  4.5 7 0  5 7 0  5.5 7 0  6 7 0  6.5 7 0  7 7 0  7.5 7 0  8 7 0  8.5 7 0  9 7 0  9.5 7 0  10 7 0  10.5 7 0  11 7 0  11.5 7 0  12 7 0  12.5 7 0  13 7 0  13.5 7 0  14 7 0  14.5 7 0  15 7 0  15.5 7 0  16 7 0  16.5 7 0  17 7 0  17.5 7 0  18 7 0  18.5 7 0  19 7 0  19.5 7 0  20 7 0  0 7.5 0  0.5 7.5 0  1 7.5 0  1.5 7.5 0  2 7.5 0  2.5 7.5 0  3 7.5 0  3.5 7.5 0  4 7.5 0  4.5 7.5 0  5 7.5 0  5.5 7.5 0  6 7.5 0  6.5 7.5 0  7 7.5 0  7.5 7.5 0  8 7.5 0  8.5 7.5 0  9 7.5 0  9.5 7.5 0  10 7.5 0  10.5 7.5 0  11 7.5 0  11.5 7.5 0  12 7.5 0  12.5 7.5 0  13 7.5 0  13.5 7.5 0  14 7.5 0  14.5 7.5 0  15 7.5 0  15.5 7.5 0  16 7.5 0  16.5 7.5 0  17 7.5 0  17.5 7.5 0  18 7.5 0  18.5 7.5 0  19 7.5 0  19.5 7.5 0  20 7.5 0  0 8 0  0.5 8 0  1 8 0  1.5 8 0  2 8 0  2.5 8 0  3 8 0  3.5 8 0  4 8 0  4.5 8 0  5 8 0  5.5 8 0  6 8 0  6.5 8 0  7 8 0  7.5 8 0  8 8 0  8.5 8 0  9 8 0  9.5 8 0  10 8 0  10.5 8 0  11 8 0  11.5 8 0  12 8 0  12.5 8 0  13 8 0  13.5 8 0  14 8 0  14.5 8 0  15 8 0  15.5 8 0  16 8 0  16.5 8 0  17 8 0  17.5 8 0  18 8 0  18.5 8 0  19 8 0  19.5 8 0  20 8 0  0 8.5 0  0.5 8.5 0  1 8.5 0  1.5 8.5 0  2 8.5 0  2.5 8.5 0  3 8.5 0  3.5 8.5 0  4 8.5 0  4.5 8.5 0  5 8.5 0  5.5 8.5 0  6 8.5 0  6.5 8.5 0  7 8.5 0  7.5 8.5 0  8 8.5 0  8.5 8.5 0  9 8.5 0  9.5 8.5 0  10 8.5 0  10.5 8.5 0  11 8.5 0  11.5 8.5 0  12 8.5 0  12.5 8.5 0  13 8.5 0  13.5 8.5 0  14 8.5 0  14.5 8.5 0  15 8.5 0  15.5 8.5 0  16 8.5 0  16.5 8.5 0  17 8.5 0  17.5 8.5 0  18 8.5 0  18.5 8.5 0  19 8.5 0  19.5 8.5 0  20 8.5 0  0 9 0  0.5 9 0  1 9 0  1.5 9 0  2 9 0  2.5 9 0  3 9 0  3.5 9 0  4 9 0  4.5 9 0  5 9 0  5.5 9 0  6 9 0  6.5 9 0  7 9 0  7.5 9 0  8 9 0  8.5 9 0  9 9 0  9.5 9 0  10 9 0  10.5 9 0  11 9 0  11.5 9 0  12 9 0  12.5 9 0  13 9 0  13.5 9 0  14 9 0  14.5 9 0  15 9 0  15.5 9 0  16 9 0  16.5 9 0  17 9 0  17.5 9 0  18 9 0  18.5 9 0  19 9 0  19.5 9 0  20 9 0  0 9.5 0  0.5 9.5 0  1 9.5 0  1.5 9.5 0  2 9.5 0  2.5 9.5 0  3 9.5 0  3.5 9.5 0  4 9.5 0  4.5 9.5 0  5 9.5 0  5.5 9.5 0  6 9.5 0  6.5 9.5 0  7 9.5 0  7.5 9.5 0  8 9.5 0  8.5 9.5 0  9 9.5 0  9.5 9.5 0  10 9.5 0  10.5 9.5 0  11 9.5 0  11.5 9.5 0  12 9.5 0  12.5 9.5 0  13 9.5 0  13.5 9.5 0  14 9.5 0  14.5 9.5 0  15 9.5 0  15.5 9.5 0  16 9.5 0  16.5 9.5 0  17 9.5 0  17.5 9.5 0  18 9.5 0  18.5 9.5 0  19 9.5 0  19.5 9.5 0  20 9.5 0  0 10 0  0.5 10 0  1 10 0  1.5 10 0  2 10 0  2.5 10 0  3 10 0  3.5 10 0  4 10 0  4.5 10 0  5 10 0  5.5 10 0  6 10 0  6.5 10 0  7 10 0  7.5 10 0  8 10 0  8.5 10 0  9 10 0  9.5 10 0  10 10 0  10.5 10 0  11 10 0  11.5 10 0  12 10 0  12.5 10 0  13 10 0  13.5 10 0  14 10 0  14.5 10 0  15 10 0  15.5 10 0  16 10 0  16.5 10 0  17 10 0  17.5 10 0  18 10 0  18.5 10 0  19 10 0  19.5 10 0  20 10 0  0 10.5 0  0.5 10.5 0  1 10.5 0  1.5 10.5 0  2 10.5 0  2.5 10.5 0  3 10.5 0  3.5 10.5 0  4 10.5 0  4.5 10.5 0  5 10.5 0  5.5 10.5 0  6 10.5 0  6.5 10.5 0  7 10.5 0  7.5 10.5 0  8 10.5 0  8.5 10.5 0  9 10.5 0  9.5 10.5 0  10 10.5 0  10.5 10.5 0  11 10.5 0  11.5 10.5 0  12 10.5 0  12.5 10.5 0  13 10.5 0  13.5 10.5 0  14 10.5 0  14.5 10.5 0  15 10.5 0  15.5 10.5 0  16 10.5 0  16.5 10.5 0  17 10.5 0  17.5 10.5 0  18 10.5 0  18.5 10.5 0  19 10.5 0  19.5 10.5 0  20 10.5 0  0 11 0  0.5 11 0  1 11 0  1.5 11 0  2 11 0  2.5 11 0  3 11 0  3.5 11 0  4 11 0  4.5 11 0  5 11 0  5.5 11 0  6 11 0  6.5 11 0  7 11 0  7.5 11 0  8 11 0  8.5 11 0  9 11 0  9.5 11 0  10 11 0  10.5 11 0  11 11 0  11.5 11 0  12 11 0  12.5 11 0  13 11 0  13.5 11 0  14 11 0  14.5 11 0  15 11 0  15.5 11 0  16 11 0  16.5 11 0  17 11 0  17.5 11 0  18 11 0  18.5 11 0  19 11 0  19.5 11 0  20 11 0  0 11.5 0  0.5 11.5 0  1 11.5 0  1.5 11.5 0  2 11.5 0  2.5 11.5 0  3 11.5 0  3.5 11.5 0  4 11.5 0  4.5 11.5 0  5 11.5 0  5.5 11.5 0  6 11.5 0  6.5 11.5 0  7 11.5 0  7.5 11.5 0  8 11.5 0  8.5 11.5 0  9 11.5 0  9.5 11.5 0  10 11.5 0  10.5 11.5 0  11 11.5 0  11.5 11.5 0  12 11.5 0  12.5 11.5 0  13 11.5 0  13.5 11.5 0  14 11.5 0  14.5 11.5 0  15 11.5 0  15.5 11.5 0  16 11.5 0  16.5 11.5 0  17 11.5 0  17.5 11.5 0  18 11.5 0  18.5 11.5 0  19 11.5 0  19.5 11.5 0  20 11.5 0  0 12 0  0.5 12 0  1 12 0  1.5 12 0  2 12 0  2.5 12 0  3 12 0  3.5 12 0  4 12 0  4.5 12 0  5 12 0  5.5 12 0  6 12 0  6.5 12 0  7 12 0  7.5 12 0  8 12 0  8.5 12 0  9 12 0  9.5 12 0  10 12 0  10.5 12 0  11 12 0  11.5 12 0  12 12 0  12.5 12 0  13 12 0  13.5 12 0  14 12 0  14.5 12 0  
[...]
<PointData  Vectors="f_5173-0"> 
<DataArray  type="Float64"  Name="f_5173-0"  NumberOfComponents="3" format="ascii">0.0000000000000000e+00 0.0000000000000000e+00 0.0000000000000000e+00  -4.6304360509334689e-07 0.0000000000000000e+00 0.0000000000000000e+00  -2.4480203460485782e-06 0.0000000000000000e+00 0.0000000000000000e+00  -7.8485580360507859e-06 0.0000000000000000e+00 0.0000000000000000e+00  -1.8351771296172534e-05 0.0000000000000000e+00 0.0000000000000000e+00  -3.5616353213358253e-05 0.0000000000000000e+00 0.0000000000000000e+00  -6.1273950098309849e-05 0.0000000000000000e+00 0.0000000000000000e+00  -9.6919545868117700e-05 0.0000000000000000e+00 0.0000000000000000e+00  -1.4410171708502184e-04 0.0000000000000000e+00 0.0000000000000000e+00  -2.0431272510563740e-04 0.0000000000000000e+00 0.0000000000000000e+00  -2.7897808916769795e-04 0.0000000000000000e+00 0.0000000000000000e+00  -3.6944543849747378e-04 0.0000000000000000e+00 0.0000000000000000e+00  -4.7697250693086956e-04 0.0000000000000000e+00 0.0000000000000000e+00  -6.0271413925406972e-04 0.0000000000000000e+00 0.0000000000000000e+00  -7.4770813902169404e-04 0.0000000000000000e+00 0.0000000000000000e+00  -9.1285968803965858e-04 0.0000000000000000e+00 0.0000000000000000e+00  -1.0989238697290183e-03 0.0000000000000000e+00 0.0000000000000000e+00  -1.3064854644853525e-03 0.0000000000000000e+00 0.0000000000000000e+00  -1.5359345421485987e-03 0.0000000000000000e+00 0.0000000000000000e+00  -1.7874352728339464e-03 0.0000000000000000e+00 0.0000000000000000e+00  -2.0608835250042249e-03 0.0000000000000000e+00 0.0000000000000000e+00  -2.3558457732652440e-03 0.0000000000000000e+00 0.0000000000000000e+00  -2.6714669291202048e-03 0.0000000000000000e+00 0.0000000000000000e+00  -3.0063269599917659e-03 0.0000000000000000e+00 0.0000000000000000e+00  -3.3582142105698680e-03 0.0000000000000000e+00 0.0000000000000000e+00  -3.7237653722551499e-03 0.0000000000000000e+00 0.0000000000000000e+00  -4.0978958183288689e-03 0.0000000000000000e+00 0.0000000000000000e+00  -4.4729070395803650e-03 0.0000000000000000e+00 0.0000000000000000e+00  -4.8371078846861518e-03 0.0000000000000000e+00 0.0000000000000000e+00  -5.1727219660407404e-03 0.0000000000000000e+00 0.0000000000000000e+00  -5.4527759149793058e-03 0.0000000000000000e+00 0.0000000000000000e+00  -5.6365767385293947e-03 0.0000000000000000e+00 0.0000000000000000e+00  -5.6633002687640072e-03 0.0000000000000000e+00 0.0000000000000000e+00  -5.4431385546506346e-03 0.0000000000000000e+00 0.0000000000000000e+00  -4.8454014341952952e-03 0.0000000000000000e+00 0.0000000000000000e+00  -3.6829310846740017e-03 0.0000000000000000e+00 0.0000000000000000e+00  -1.6921270976793230e-03 0.0000000000000000e+00 0.0000000000000000e+00  1.4923157353329667e-03 0.0000000000000000e+00 0.0000000000000000e+00  6.3694322273441743e-03 0.0000000000000000e+00 0.0000000000000000e+00  1.3613990570256760e-02 0.0000000000000000e+00 0.0000000000000000e+00  2.4140557678657228e-02 0.0000000000000000e+00 0.0000000000000000e+00  0.0000000000000000e+00 -4.6304360543562804e-07 0.0000000000000000e+00  5.8821622900488319e-07 5.8821623036592135e-07 0.0000000000000000e+00  -5.9963150375033098e-07 3.2328173129719910e-06 0.0000000000000000e+00  -5.1707160664715711e-06 7.5033427862066555e-06 0.0000000000000000e+00  -1.4827908285897292e-05 1.3430177242389336e-05 0.0000000000000000e+00  -3.1242267647659241e-05 2.1004793985222473e-05 0.0000000000000000e+00  -5.6049886590349494e-05 3.0198010399706193e-05 0.0000000000000000e+00  -9.0847662839314001e-05 4.0968344292017901e-05 0.0000000000000000e+00  -1.3718561304141546e-04 5.3264281053903746e-05 0.0000000000000000e+00  -1.9655761906230945e-04 6.7024398392166723e-05 0.0000000000000000e+00  -2.7039121416392339e-04 8.2176818193617913e-05 0.0000000000000000e+00  -3.6003651313593337e-04 9.8638450024598288e-05 0.0000000000000000e+00  -4.6675424009668380e-04 1.1631417430827888e-04 0.0000000000000000e+00  -5.9170274908758205e-04 1.3509602390047675e-04 0.0000000000000000e+00  -7.3592387383673147e-04 1.5486240051221776e-04 0.0000000000000000e+00  -9.0032733771539929e-04 1.7547735887014505e-04 0.0000000000000000e+00  -1.0856732554176149e-03 1.9678999286650573e-04 0.0000000000000000e+00  -1.2925518934150126e-03 2.1863396012240886e-04 0.0000000000000000e+00  -1.5213592135252414e-03 2.4082718296719176e-04 0.0000000000000000e+00  -1.7722656203074843e-03 2.6317176493406859e-04 0.0000000000000000e+00  -2.0451734802756851e-03 2.8545416270669608e-04 0.0000000000000000e+00  -2.3396559338137377e-03 3.0744565499985497e-04 0.0000000000000000e+00  -2.6548646090418407e-03 3.2890315460531625e-04 0.0000000000000000e+00  -2.9893860946568467e-03 3.4957042051827786e-04 0.0000000000000000e+00  -3.3410150707902501e-03 3.6917974809621548e-04 0.0000000000000000e+00  -3.7063940192505777e-03 3.8745425117076980e-04 0.0000000000000000e+00  -4.0804431950644607e-03 4.0411090294050752e-04 0.0000000000000000e+00  -4.4554675475194068e-03 4.1886456939291928e-04 0.0000000000000000e+00  -4.8197772411836416e-03 4.3143333289381717e-04 0.0000000000000000e+00  -5.1555940815285351e-03 4.4154542735091426e-04 0.0000000000000000e+00  -5.4359384683687374e-03 4.4894802536830897e-04 0.0000000000000000e+00  -5.6201050311600912e-03 4.5341784316876139e-04 0.0000000000000000e+00  -5.6472486946683963e-03 4.5477297484566799e-04 0.0000000000000000e+00  -5.4275283952914645e-03 4.5288450771890806e-04 0.0000000000000000e+00  -4.8302022442676456e-03 4.4768541225695012e-04 0.0000000000000000e+00  -3.6680301731889541e-03 4.3917311669575522e-04 0.0000000000000000e+00  -1.6772777614087087e-03 4.2740040022962611e-04 0.0000000000000000e+00  1.5075753731583006e-03 4.1244043569098337e-04 0.0000000000000000e+00  6.3858409590457103e-03 3.9426186620812684e-04 0.0000000000000000e+00  1.3631946802139128e-02 3.7220226836304899e-04 0.0000000000000000e+00  2.4150453532496674e-02 3.4267815757361281e-04 0.0000000000000000e+00  0.0000000000000000e+00 -2.4480203485327776e-06 0.0000000000000000e+00  3.2328173140331149e-06 -5.9963150249420452e-07 0.0000000000000000e+00  4.6171810310222761e-06 4.6171810308197776e-06 0.0000000000000000e+00  2.5956145420633011e-06 1.3175375244242580e-05 0.0000000000000000e+00  -4.5125383743531713e-06 2.5059147035926435e-05 0.0000000000000000e+00  -1.8375648124381505e-05 4.0231612772094867e-05 0.0000000000000000e+00  -4.0632702796057834e-05 5.8634272420991365e-05 0.0000000000000000e+00  -7.2884498312241231e-05 8.0187618159719589e-05 0.0000000000000000e+00  -1.1668541677250430e-04 1.0479168309330724e-04 0.0000000000000000e+00  -1.7353444446954419e-04 1.3232587169941236e-04 0.0000000000000000e+00  -2.4486526175437445e-04 1.6264812584643320e-04 0.0000000000000000e+00  -3.3203539153618076e-04 1.9559366638857931e-04 0.0000000000000000e+00  -4.3631436761718727e-04 2.3097351363843239e-04 0.0000000000000000e+00  -5.5887083624368513e-04 2.6857292944716107e-04 0.0000000000000000e+00  -7.0075843803189331e-04 3.0814988547468925e-04 0.0000000000000000e+00  -8.6290020507080029e-04 3.4943364547263179e-04 0.0000000000000000e+00  -1.0460710044802592e-03 3.9212354440142457e-04 0.0000000000000000e+00  -1.2508771932686047e-03 4.3588804807472725e-04 0.0000000000000000e+00  -1.4777320056604908e-03 4.8036417971686259e-04 0.0000000000000000e+00  -1.7268240896068548e-03 5.2515740322413914e-04 0.0000000000000000e+00  -1.9980747549037275e-03 5.6984205657555347e-04 0.0000000000000000e+00  -2.2910764443647182e-03 6.1396243441653900e-04 0.0000000000000000e+00  -2.6050000210210205e-03 6.5703462843412193e-04 0.0000000000000000e+00  -2.9384507002471281e-03 6.9854925235350010e-04 0.0000000000000000e+00  -3.2892404798523975e-03 7.3797520959292275e-04 0.0000000000000000e+00  -3.6540269204404763e-03 7.7476471086753622e-04 0.0000000000000000e+00  -4.0277418629764226e-03 8.0835981647809057e-04 0.0000000000000000e+00  -4.4026966570946385e-03 8.3820085599147724e-04 0.0000000000000000e+00  -4.7672004353934705e-03 8.6373713965538930e-04 0.0000000000000000e+00  -5.1034636617240592e-03 8.8444036812133681e-04 0.0000000000000000e+00  -5.3844815932443902e-03 8.9982098156103727e-04 0.0000000000000000e+00  -5.5695059736775524e-03 9.0944724149155068e-04 0.0000000000000000e+00  -5.5976270288933790e-03 9.1296596003662145e-04 0.0000000000000000e+00  -5.3789133945081101e-03 9.1012230728261046e-04 0.0000000000000000e+00  -4.7825041557002018e-03 9.0077372877592622e-04 0.0000000000000000e+00  -3.6210097199798445e-03 8.8488869009373900e-04 0.0000000000000000e+00  -1.6305190719140068e-03 8.6251110061368768e-04 0.0000000000000000e+00  1.5546628996213918e-03 8.3364412639482476e-04 0.0000000000000000e+00  6.4338778144863700e-03 7.9793106202555146e-04 0.0000000000000000e+00  1.3680850680342685e-02 7.5382724005817808e-04 0.0000000000000000e+00  2.4196996725168177e-02 6.9671727130810263e-04 0.0000000000000000e+00  0.0000000000000000e+00 -7.8485580356523941e-06 0.0000000000000000e+00  7.5033427849023171e-06 -5.1707160649952503e-06 0.0000000000000000e+00  1.3175375240355889e-05 2.5956145432019942e-06 0.0000000000000000e+00  1.5414840070368173e-05 1.5414840072888350e-05 0.0000000000000000e+00  1.2559718194882722e-05 3.3242540149774156e-05 0.0000000000000000e+00  2.9460575971761518e-06 5.6012626055947716e-05 0.0000000000000000e+00  -1.5065871665531130e-05 8.3632396677527375e-05 0.0000000000000000e+00  -4.3080541689150289e-05 1.1598170642836149e-04 0.0000000000000000e+00  -8.2658184583618376e-05 1.5291193679013403e-04 0.0000000000000000e+00  -1.3530563073890954e-04 1.9424449191605809e-04 0.0000000000000000e+00  -2.0246647504230047e-04 2.3976893537782108e-04 0.0000000000000000e+00  -2.8551037906020862e-04 2.8924086050168978e-04 0.0000000000000000e+00  -3.8572138723769477e-04 3.4237958854400349e-04 0.0000000000000000e+00  -5.0428513424476855e-04 3.9886580037950078e-04 0.0000000000000000e+00  -6.4227477371333187e-04 4.5833921519314379e-04 0.0000000000000000e+00  -8.0063535311741439e-04 5.2039643568256957e-04 0.0000000000000000e+00  -9.8016615785011729e-04 5.8458908522737187e-04 0.0000000000000000e+00  -1.1815001813723985e-03 6.5042236973037815e-04 0.0000000000000000e+00  -1.4050792340303136e-03 7.1735420445860198e-04 0.0000000000000000e+00  -1.6511220976335591e-03 7.8479505410636904e-04 0.0000000000000000e+00  -1.9195812759399246e-03 8.5210864263361849e-04 0.0000000000000000e+00  -2.2100808356511838e-03 9.1861369906415626e-04 0.0000000000000000e+00  -2.5218229051943036e-03 9.8358691889294117e-04 0.0000000000000000e+00  -2.8534426212321984e-03 1.0462673409631809e-03 0.0000000000000000e+00  -3.2027793181395123e-03 1.1058623702441712e-03 0.0000000000000000e+00  -3.5665137325326178e-03 1.1615557200855555e-03 0.0000000000000000e+00  -3.9395947090969854e-03 1.2125175992485154e-03 0.0000000000000000e+00  -4.3143418735924789e-03 1.2579175157359087e-03 0.0000000000000000e+00  -4.6790607259188603e-03 1.2969400758431858e-03 0.0000000000000000e+00  -5.0159423812940552e-03 1.3288040589717702e-03 0.0000000000000000e+00  -5.2979427643605097e-03 1.3527847402012632e-03 0.0000000000000000e+00  -5.4842500022708254e-03 1.3682387565140596e-03 0.0000000000000000e+00  -5.5138628827480505e-03 1.3746295444158766e-03 0.0000000000000000e+00  -5.2967293026502087e-03 1.3715491748555032e-03 0.0000000000000000e+00  -4.7018410609837415e-03 1.3587286502962656e-03 0.0000000000000000e+00  -3.5416461389238315e-03 1.3360220574768096e-03 0.0000000000000000e+00  -1.5520870954222018e-03 1.3033374644282271e-03 0.0000000000000000e+00  1.6325812505523266e-03 1.2604640862570260e-03 0.0000000000000000e+00  6.5114533768885503e-03 1.2067087963662749e-03 0.0000000000000000e+00  1.3757265530582508e-02 1.1402383205563295e-03 0.0000000000000000e+00  2.4269124671049920e-02 1.0572237535962149e-03 0.0000000000000000e+00  0.0000000000000000e+00 -1.8351771293834093e-05 0.0000000000000000e+00  1.3430177241313243e-05 -1.4827908283885479e-05 0.0000000000000000e+00  2.5059147036584231e-05 -4.5125383730620669e-06 0.0000000000000000e+00  3.3242540150576100e-05 1.2559718194550404e-05 0.0000000000000000e+00  3.6324220206195814e-05 3.6324220206275923e-05 0.0000000000000000e+00  3.2643301682927716e-05 6.6688798794003364e-05 0.0000000000000000e+00  2.0558697664188352e-05 1.0352875781059374e-04 0.0000000000000000e+00  -1.5385759511358273e-06 1.4668479597859576e-04 0.0000000000000000e+00  -3.5216079453686763e-05 1.9596103678337908e-04 0.0000000000000000e+00  -8.1990852113236138e-05 2.5112264678242135e-04 0.0000000000000000e+00  -1.4331974989858758e-04 3.1189305036586967e-04 0.0000000000000000e+00  -2.2058893910900966e-04 3.7795085307430867e-04 0.0000000000000000e+00  -3.1510238384550783e-04 4.4892659340303980e-04 0.0000000000000000e+00  -4.2806917636688193e-04 5.2439944487144355e-04 0.0000000000000000e+00  -5.6058951804444687e-04 6.0389400027590582e-04 0.0000000000000000e+00  -7.1363905675623986e-04 6.8687728440008889e-04 0.0000000000000000e+00  -8.8805108666129278e-04 7.7275615802582516e-04 0.0000000000000000e+00  -1.0844957510294192e-03 8.6087529249985061e-04 0.0000000000000000e+00  -1.3034547445426069e-03 9.5051591012466116e-04 0.0000000000000000e+00  -1.5451889050475140e-03 1.0408955006681827e-03 0.0000000000000000e+00  -1.8096942256435637e-03 1.1311687386528495e-03 0.0000000000000000e+00  -2.0966387581555731e-03 1.2204298400687291e-03 0.0000000000000000e+00  -2.4052679445652585e-03 1.3077166122850697e-03 0.0000000000000000e+00  -2.7342581250600615e-03 1.3920164683005084e-03 0.0000000000000000e+00  -3.0814859635184513e-03 1.4722746970269244e-03 0.0000000000000000e+00  -3.4436634952212195e-03 1.5474053032501652e-03 0.0000000000000000e+00  -3.8157622108085615e-03 1.6163047458782997e-03 0.0000000000000000e+00  -4.1901125861081084e-03 1.6778688907740668e-03 0.0000000000000000e+00  -4.5550155122910038e-03 1.7310134145935682e-03 0.0000000000000000e+00  -4.8926379822749073e-03 1.7746976779603265e-03 0.0000000000000000e+00  -5.1758881916313107e-03 1.8079516175532587e-03 0.0000000000000000e+00  -5.3638795096356247e-03 1.8299043209511201e-03 0.0000000000000000e+00  -5.3955074229676643e-03 1.8398114054311646e-03 0.0000000000000000e+00  -5.1805904087545212e-03 1.8370757797588773e-03 0.0000000000000000e+00  -4.5879744621095848e-03 1.8212523339136669e-03 0.0000000000000000e+00  -3.4299683513472237e-03 1.7920209334987482e-03 0.0000000000000000e+00  -1.4424290403059949e-03 1.7491033929191416e-03 0.0000000000000000e+00  1.7403315698193995e-03 1.6920906826401838e-03 0.0000000000000000e+00  6.6170591584008460e-03 1.6201471976471267e-03 0.0000000000000000e+00  1.3859680754629101e-02 1.5316054003546606e-03 0.0000000000000000e+00  2.4366208672073186e-02 1.4236361979605445e-03 0.0000000000000000e+00  0.0000000000000000e+00 -3.5616353212091681e-05 0.0000000000000000e+00  2.1004793984854105e-05 -3.1242267645170563e-05 0.0000000000000000e+00  4.0231612771385880e-05 -1.8375648125181775e-05 0.0000000000000000e+00  5.6012626057373164e-05 2.9460575973311533e-06 0.0000000000000000e+00  6.6688798797149990e-05 3.2643301684708010e-05 0.0000000000000000e+00  7.0600725481338505e-05 7.0600725480280337e-05 0.0000000000000000e+00  6.6105436466446283e-05 1.1666418434915903e-04 0.0000000000000000e+00  5.1588610004566514e-05 1.7063789773712087e-04 0.0000000000000000e+00  2.5473918487416730e-05 2.3228162169542819e-04 0.0000000000000000e+00  -1.3768076163980992e-05 3.0130741548138054e-04 0.0000000000000000e+00  -6.7610553043221568e-05 3.7737596869874638e-04 0.0000000000000000e+00  -1.3746021756446823e-04 4.6009258315517405e-04 0.0000000000000000e+00  -2.2464603447239272e-04 5.4900293897072196e-04 0.0000000000000000e+00  -3.3040673064936371e-04 6.4358879078052608e-04 0.0000000000000000e+00  -4.5587685334266782e-04 7.4326375593177299e-04 0.0000000000000000e+00  -6.0207106763537606e-04 8.4736937644230728e-04 0.0000000000000000e+00  -7.6986617681232131e-04 9.5517165913393135e-04 0.0000000000000000e+00  -9.5997998316492753e-04 1.0658583223464903e-03 0.0000000000000000e+00  -1.1729454619617324e-03 1.1785370016738992e-03 0.0000000000000000e+00  -1.4090776139265944e-03 1.2922346899647298e-03 0.0000000000000000e+00  -1.6684285010467538e-03 1.4058987077847809e-03 0.0000000000000000e+00  -1.9507229081570879e-03 1.5183995187737149e-03 0.0000000000000000e+00  -2.2552621345709712e-03 1.6285357197037794e-03 0.0000000000000000e+00  -2.5807756275801662e-03 1.7350415461506079e-03 0.0000000000000000e+00  -2.9251881579314158e-03 1.8365972395236517e-03 0.0000000000000000e+00  -3.2852522026354893e-03 1.9318426136610690e-03 0.0000000000000000e+00  -3.6559689243779092e-03 2.0193941269585230e-03 0.0000000000000000e+00  -4.0296841737967456e-03 2.0978656845915210e-03 0.0000000000000000e+00  -4.3946960737916377e-03 2.1658932234771789e-03 0.0000000000000000e+00  -4.7331468064112951e-03 2.2221628015435557e-03 0.0000000000000000e+00  -5.0178942850531870e-03 2.2654413218334501e-03 0.0000000000000000e+00  -5.2079740810175770e-03 2.2946080289745359e-03 0.0000000000000000e+00  -5.2421771700882896e-03 2.3086833366340273e-03 0.0000000000000000e+00  -5.0301966745829024e-03 2.3068491719365715e-03 0.0000000000000000e+00  -4.4407465659297212e-03 2.2884517008614738e-03 0.0000000000000000e+00  -3.2860238850398070e-03 2.2529731769314553e-03 0.0000000000000000e+00  -1.3018391188037593e-03 2.1999558689304627e-03 0.0000000000000000e+00  1.8774122204564931e-03 2.1288611756730760e-03 0.0000000000000000e+00  6.7501941752378799e-03 2.0388594099341730e-03 0.0000000000000000e+00  1.3987963234249307e-02 1.9285828133886924e-03 0.0000000000000000e+00  2.4488407730060380e-02 1.7959314181351935e-03 0.0000000000000000e+00  0.0000000000000000e+00 -6.1273950099205725e-05 0.0000000000000000e+00  3.0198010400693434e-05 -5.6049886589263144e-05 0.0000000000000000e+00  5.8634272421885500e-05 -4.0632702795825645e-05 0.0000000000000000e+00  8.3632396677739824e-05 -1.5065871665429568e-05 0.0000000000000000e+00  1.0352875780976773e-04 2.0558697665705144e-05 0.0000000000000000e+00  1.1666418434707460e-04 6.6105436468172861e-05 0.0000000000000000e+00  1.2139365308384531e-04 1.2139365308599302e-04 0.0000000000000000e+00  1.1609711774256828e-04 1.8619433133694162e-04 0.0000000000000000e+00  9.9188486913382918e-05 2.6022653433554598e-04 0.0000000000000000e+00  6.9124158205725021e-05 3.4315330849553154e-04 0.0000000000000000e+00  2.4411983680553591e-05 4.3457708414101399e-04 0.0000000000000000e+00  -3.6378905593434094e-05 5.3403466454636874e-04 0.0000000000000000e+00  -1.1460716465071688e-04 6.4099193967937038e-04 0.0000000000000000e+00  -2.1154697948251114e-04 7.5483848825215341e-04 0.0000000000000000e+00  -3.2837424966825502e-04 8.7488225673234394e-04 0.0000000000000000e+00  -4.6615086547284414e-04 1.0003445320593183e-03 0.0000000000000000e+00  -6.2580653463715108e-04 1.1303554551589619e-03 0.0000000000000000e+00  -8.0811724644184481e-04 1.2639503546498297e-03 0.0000000000000000e+00  -1.0136788146372828e-03 1.4000672127455712e-03 0.0000000000000000e+00  -1.2428728324876011e-03 1.5375456064730239e-03 0.0000000000000000e+00  -1.4958205122292928e-03 1.6751274954921989e-03 0.0000000000000000e+00  -1.7723168187619455e-03 1.8114602507450035e-03 0.0000000000000000e+00  -2.0717323701599601e-03 1.9451023336442077e-03 0.0000000000000000e+00  -2.3928627876980673e-03 2.0745320396153327e-03 0.0000000000000000e+00  -2.7336931735429796e-03 2.1981597076318523e-03 0.0000000000000000e+00  -3.0910273758947802e-03 2.3143437589431214e-03 0.0000000000000000e+00  -3.4599054587758503e-03 2.4214108488052827e-03 0.0000000000000000e+00  -3.8326958938831837e-03 2.5176802688083181e-03 0.0000000000000000e+00  -4.1976992337702584e-03 2.6014924863157762e-03 0.0000000000000000e+00  -4.5370362602885992e-03 2.6712412941374834e-03 0.0000000000000000e+00  -4.8235169195038419e-03 2.7254083910928061e-03 0.0000000000000000e+00  -5.0161013862764512e-03 2.7625982273912506e-03 0.0000000000000000e+00  -5.0534802254338131e-03 2.7815695281217996e-03 0.0000000000000000e+00  -4.8452286831614198e-03 2.7812579963670506e-03 0.0000000000000000e+00  -4.2599402593908355e-03 2.7607823882470294e-03 0.0000