<?xml version="1.0"?>
<VTKFile type="UnstructuredGrid"  version="0.1"  >
<UnstructuredGrid>
<Piece  NumberOfPoints="1681" NumberOfCells="3200">
<Points>
<DataArray  type="Float64"  NumberOfComponents="3"  format="ascii">0 0 0  0.5 0 0  1 0 0  1.5 0 0  2 0 0  2.5 0 0  3 0 0  3.5 0 0  4 0 0  4.5 0 0  5 0 0  5.5 0 0  6 0 0  6.5 0 0  7 0 0  7.5 0 0  8 0 0  8.5 0 0  9 0 0  9.5 0 0  10 0 0  10.5 0 0  11 0 0  11.5 0 0  12 0 0  12.5 0 0  13 0 0  13.5 0 0  14 0 0  14.5 0 0  15 0 0  15.5 0 0  16 0 0  16.5 0 0  17 0 0  17.5 0 0  18 0 0  18.5 0 0  19 0 0  19.5 0 0  20 0 0  0 0.5 0  0.5 0.5 0  1 0.5 0  1.5 0.5 0  2 0.5 0  2.5 0.5 0  3 0.5 0  3.5 0.5 0  4 0.5 0  4.5 0.5 0  5 0.5 0  5.5 0.5 0  6 0.5 0  6.5 0.5 0  7 0.5 0  7.5 0.5 0  8 0.5 0  8.5 0.5 0  9 0.5 0  9.5 0.5 0  10 0.5 0  10.5 0.5 0  11 0.5 0  11.5 0.5 0  12 0.5 0  12.5 0.5 0  13 0.5 0  13.5 0.5 0  14 0.5 0  14.5 0.5 0  15 0.5 0  15.5 0.5 0  16 0.5 0  16.5 0.5 0  17 0.5 0  17.5 0.5 0  18 0.5 0  18.5 0.5 0  19 0.5 0  19.5 0.5 0  20 0.5 0  0 1 0  0.5 1 0  1 1 0  1.5 1 0  2 1 0  2.5 1 0  3 1 0  3.5 1 0  4 1 0  4.5 1 0  5 1 0  5.5 1 0  6 1 0  6.5 1 0  7 1 0  7.5 1 0  8 1 0  8.5 1 0  9 1 0  9.5 1 0  10 1 0  10.5 1 0  11 1 0  11.5 1 0  12 1 0  12.5 1 0  13 1 0  13.5 1 0  14 1 0  14.5 1 0  15 1 0  15.5 1 0  16 1 0  16.5 1 0  17 1 0  17.5 1 0  18 1 0  18.5 1 0  19 1 0  19.5 1 0  20 1 0  0 1.5 0  0.5 1.5 0  1 1.5 0  1.5 1.5 0  2 1.5 0  2.5 1.5 0  3 1.5 0  3.5 1.5 0  4 1.5 0  4.5 1.5 0  5 1.5 0  5.5 1.5 0  6 1.5 0  6.5 1.5 0  7 1.5 0  7.5 1.5 0  8 1.5 0  8.5 1.5 0  9 1.5 0  9.5 1.5 0  10 1.5 0  10.5 1.5 0  11 1.5 0  11.5 1.5 0  12 1.5 0  12.5 1.5 0  13 1.5 0  13.5 1.5 0  14 1.5 0  14.5 1.5 0  15 1.5 0  15.5 1.5 0  16 1.5 0  16.5 1.5 0  17 1.5 0  17.5 1.5 0  18 1.5 0  18.5 1.5 0  19 1.5 0  19.5 1.5 0  20 1.5 0  0 2 0  0.5 2 0  1 2 0  1.5 2 0  2 2 0  2.5 2 0  3 2 0  3.5 2 0  4 2 0  4.5 2 0  5 2 0  5.5 2 0  6 2 0  6.5 2 0  7 2 0  7.5 2 0  8 2 0  8.5 2 0  9 2 0  9.5 2 0  10 2 0  10.5 2 0  11 2 0  11.5 2 0  12 2 0  12.5 2 0  13 2 0  13.5 2 0  14 2 0  14.5 2 0  15 2 0  15.5 2 0  16 2 0  16.5 2 0  17 2 0  17.5 2 0  18 2 0  18.5 2 0  19 2 0  19.5 2 0  20 2 0  0 2.5 0  0.5 2.5 0  1 2.5 0  1.5 2.5 0  2 2.5 0  2.5 2.5 0  3 2.5 0  3.5 2.5 0  4 2.5 0  4.5 2.5 0  5 2.5 0  5.5 2.5 0  6 2.5 0  6.5 2.5 0  7 2.5 0  7.5 2.5 0  8 2.5 0  8.5 2.5 0  9 2.5 0  9.5 2.5 0  10 2.5 0  10.5 2.5 0  11 2.5 0  11.5 2.5 0  12 2.5 0  12.5 2.5 0  13 2.5 0  13.5 2.5 0  14 2.5 0  14.5 2.5 0  15 2.5 0  15.5 2.5 0  16 2.5 0  16.5 2.5 0  17 2.5 0  17.5 2.5 0  18 2.5 0  18.5 2.5 0  19 2.5 0  19.5 2.5 0  20 2.5 0  0 3 0  0.5 3 0  1 3 0  1.5 3 0  2 3 0  2.5 3 0  3 3 0  3.5 3 0  4 3 0  4.5 3 0  5 3 0  5.5 3 0  6 3 0  6.5 3 0  7 3 0  7.5 3 0  8 3 0  8.5 3 0  9 3 0  9.5 3 0  10 3 0  10.5 3 0  11 3 0  11.5 3 0  12 3 0  12.5 3 0  13 3 0  13.5 3 0  14 3 0  14.5 3 0  15 3 0  15.5 3 0  16 3 0  16.5 3 0  17 3 0  17.5 3 0  18 3 0  18.5 3 0  19 3 0  19.5 3 0  20 3 0  0 3.5 0  0.5 3.5 0  1 3.5 0  1.5 3.5 0  2 3.5 0  2.5 3.5 0  3 3.5 0  3.5 3.5 0  4 3.5 0  4.5 3.5 0  5 3.5 0  5.5 3.5 0  6 3.5 0  6.5 3.5 0  7 3.5 0  7.5 3.5 0  8 3.5 0  8.5 3.5 0  9 3.5 0  9.5 3.5 0  10 3.5 0  10.5 3.5 0  11 3.5 0  11.5 3.5 0  12 3.5 0  12.5 3.5 0  13 3.5 0  13.5 3.5 0  14 3.5 0  14.5 3.5 0  15 3.5 0  15.5 3.5 0  16 3.5 0  16.5 3.5 0  17 3.5 0  17.5 3.5 0  18 3.5 0  18.5 3.5 0  19 3.5 0  19.5 3.5 0  20 3.5 0  0 4 0  0.5 4 0  1 4 0  1.5 4 0  2 4 0  2.5 4 0  3 4 0  3.5 4 0  4 4 0  4.5 4 0  5 4 0  5.5 4 0  6 4 0  6.5 4 0  7 4 0  7.5 4 0  8 4 0  8.5 4 0  9 4 0  9.5 4 0  10 4 0  10.5 4 0  11 4 0  11.5 4 0  12 4 0  12.5 4 0  13 4 0  13.5 4 0  14 4 0  14.5 4 0  15 4 0  15.5 4 0  16 4 0  16.5 4 0  17 4 0  17.5 4 0  18 4 0  18.5 4 0  19 4 0  19.5 4 0  20 4 0  0 4.5 0  0.5 4.5 0  1 4.5 0  1.5 4.5 0  2 4.5 0  2.5 4.5 0  3 4.5 0  3.5 4.5 0  4 4.5 0  4.5 4.5 0  5 4.5 0  5.5 4.5 0  6 4.5 0  6.5 4.5 0  7 4.5 0  7.5 4.5 0  8 4.5 0  8.5 4.5 0  9 4.5 0  9.5 4.5 0  10 4.5 0  10.5 4.5 0  11 4.5 0  11.5 4.5 0  12 4.5 0  12.5 4.5 0  13 4.5 0  13.5 4.5 0  14 4.5 0  14.5 4.5 0  15 4.5 0  15.5 4.5 0  16 4.5 0  16.5 4.5 0  17 4.5 0  17.5 4.5 0  18 4.5 0  18.5 4.5 0  19 4.5 0  19.5 4.5 0  20 4.5 0  0 5 0  0.5 5 0  1 5 0  1.5 5 0  2 5 0  2.5 5 0  3 5 0  3.5 5 0  4 5 0  4.5 5 0  5 5 0  5.5 5 0  6 5 0  6.5 5 0  7 5 0  7.5 5 0  8 5 0  8.5 5 0  9 5 0  9.5 5 0  10 5 0  10.5 5 0  11 5 0  11.5 5 0  12 5 0  12.5 5 0  13 5 0  13.5 5 0  14 5 0  14.5 5 0  15 5 0  15.5 5 0  16 5 0  16.5 5 0  17 5 0  17.5 5 0  18 5 0  18.5 5 0  19 5 0  19.5 5 0  20 5 0  0 5.5 0  0.5 5.5 0  1 5.5 0  1.5 5.5 0  2 5.5 0  2.5 5.5 0  3 5.5 0  3.5 5.5 0  4 5.5 0  4.5 5.5 0  5 5.5 0  5.5 5.5 0  6 5.5 0  6.5 5.5 0  7 5.5 0  7.5 5.5 0  8 5.5 0  8.5 5.5 0  9 5.5 0  9.5 5.5 0  10 5.5 0  10.5 5.5 0  11 5.5 0  11.5 5.5 0  12 5.5 0  12.5 5.5 0  13 5.5 0  13.5 5.5 0  14 5.5 0  14.5 5.5 0  15 5.5 0  15.5 5.5 0  16 5.5 0  16.5 5.5 0  17 5.5 0  17.5 5.5 0  18 5.5 0  18.5 5.5 0  19 5.5 0  19.5 5.5 0  20 5.5 0  0 6 0  0.5 6 0  1 6 0  1.5 6 0  2 6 0  2.5 6 0  3 6 0  3.5 6 0  4 6 0  4.5 6 0  5 6 0  5.5 6 0  6 6 0  6.5 6 0  7 6 0  7.5 6 0  8 6 0  8.5 6 0  9 6 0  9.5 6 0  10 6 0  10.5 6 0  11 6 0  11.5 6 0  12 6 0  12.5 6 0  13 6 0  13.5 6 0  14 6 0  14.5 6 0  15 6 0  15.5 6 0  16 6 0  16.5 6 0  17 6 0  17.5 6 0  18 6 0  18.5 6 0  19 6 0  19.5 6 0  20 6 0  0 6.5 0  0.5 6.5 0  1 6.5 0  1.5 6.5 0  2 6.5 0  2.5 6.5 0  3 6.5 0  3.5 6.5 0  4 6.5 0  4.5 6.5 0  5 6.5 0  5.5 6.5 0  6 6.5 0  6.5 6.5 0  7 6.5 0  7.5 6.5 0  8 6.5 0  8.5 6.5 0  9 6.5 0  9.5 6.5 0  10 6.5 0  10.5 6.5 0  11 6.5 0  11.5 6.5 0  12 6.5 0  12.5 6.5 0  13 6.5 0  13.5 6.5 0  14 6.5 0  14.5 6.5 0  15 6.5 0  15.5 6.5 0  16 6.5 0  16.5 6.5 0  17 6.5 0  17.5 6.5 0  18 6.5 0  18.5 6.5 0  19 6.5 0  19.5 6.5 0  20 6.5 0  0 7 0  0.5 7 0  1 7 0  1.5 7 0  2 7 0  2.5 7 0  3 7 0  3.5 7 0  4 7 0  4.5 7 0  5 7 0  5.5 7 0  6 7 0  6.5 7 0  7 7 0  7.5 7 0  8 7 0  8.5 7 0  9 7 0  9.5 7 0  10 7 0  10.5 7 0  11 7 0  11.5 7 0  12 7 0  12.5 7 0  13 7 0  13.5 7 0  14 7 0  14.5 7 0  15 7 0  15.5 7 0  16 7 0  16.5 7 0  17 7 0  17.5 7 0  18 7 0  18.5 7 0  19 7 0  19.5 7 0  20 7 0  0 7.5 0  0.5 7.5 0  1 7.5 0  1.5 7.5 0  2 7.5 0  2.5 7.5 0  3 7.5 0  3.5 7.5 0  4 7.5 0  4.5 7.5 0  5 7.5 0  5.5 7.5 0  6 7.5 0  6.5 7.5 0  7 7.5 0  7.5 7.5 0  8 7.5 0  8.5 7.5 0  9 7.5 0  9.5 7.5 0  10 7.5 0  10.5 7.5 0  11 7.5 0  11.5 7.5 0  12 7.5 0  12.5 7.5 0  13 7.5 0  13.5 7.5 0  14 7.5 0  14.5 7.5 0  15 7.5 0  15.5 7.5 0  16 7.5 0  16.5 7.5 0  17 7.5 0  17.5 7.5 0  18 7.5 0  18.5 7.5 0  19 7.5 0  19.5 7.5 0  20 7.5 0  0 8 0  0.5 8 0  1 8 0  1.5 8 0  2 8 0  2.5 8 0  3 8 0  3.5 8 0  4 8 0  4.5 8 0  5 8 0  5.5 8 0  6 8 0  6.5 8 0  7 8 0  7.5 8 0  8 8 0  8.5 8 0  9 8 0  9.5 8 0  10 8 0  10.5 8 0  11 8 0  11.5 8 0  12 8 0  12.5 8 0  13 8 0  13.5 8 0  14 8 0  14.5 8 0  15 8 0  15.5 8 0  16 8 0  16.5 8 0  17 8 0  17.5 8 0  18 8 0  18.5 8 0  19 8 0  19.5 8 0  20 8 0  0 8.5 0  0.5 8.5 0  1 8.5 0  1.5 8.5 0  2 8.5 0  2.5 8.5 0  3 8.5 0  3.5 8.5 0  4 8.5 0  4.5 8.5 0  5 8.5 0  5.5 8.5 0  6 8.5 0  6.5 8.5 0  7 8.5 0  7.5 8.5 0  8 8.5 0  8.5 8.5 0  9 8.5 0  9.5 8.5 0  10 8.5 0  10.5 8.5 0  11 8.5 0  11.5 8.5 0  12 8.5 0  12.5 8.5 0  13 8.5 0  13.5 8.5 0  14 8.5 0  14.5 8.5 0  15 8.5 0  15.5 8.5 0  16 8.5 0  16.5 8.5 0  17 8.5 0  17.5 8.5 0  18 8.5 0  18.5 8.5 0  19 8.5 0  19.5 8.5 0  20 8.5 0  0 9 0  0.5 9 0  1 9 0  1.5 9 0  2 9 0  2.5 9 0  3 9 0  3.5 9 0  4 9 0  4.5 9 0  5 9 0  5.5 9 0  6 9 0  6.5 9 0  7 9 0  7.5 9 0  8 9 0  8.5 9 0  9 9 0  9.5 9 0  10 9 0  10.5 9 0  11 9 0  11.5 9 0  12 9 0  12.5 9 0  13 9 0  13.5 9 0  14 9 0  14.5 9 0  15 9 0  15.5 9 0  16 9 0  16.5 9 0  17 9 0  17.5 9 0  18 9 0  18.5 9 0  19 9 0  19.5 9 0  20 9 0  0 9.5 0  0.5 9.5 0  1 9.5 0  1.5 9.5 0  2 9.5 0  2.5 9.5 0  3 9.5 0  3.5 9.5 0  4 9.5 0  4.5 9.5 0  5 9.5 0  5.5 9.5 0  6 9.5 0  6.5 9.5 0  7 9.5 0  7.5 9.5 0  8 9.5 0  8.5 9.5 0  9 9.5 0  9.5 9.5 0  10 9.5 0  10.5 9.5 0  11 9.5 0  11.5 9.5 0  12 9.5 0  12.5 9.5 0  13 9.5 0  13.5 9.5 0  14 9.5 0  14.5 9.5 0  15 9.5 0  15.5 9.5 0  16 9.5 0  16.5 9.5 0  17 9.5 0  17.5 9.5 0  18 9.5 0  18.5 9.5 0  19 9.5 0  19.5 9.5 0  20 9.5 0  0 10 0  0.5 10 0  1 10 0  1.5 10 0  2 10 0  2.5 10 0  3 10 0  3.5 10 0  4 10 0  4.5 10 0  5 10 0  5.5 10 0  6 10 0  6.5 10 0  7 10 0  7.5 10 0  8 10 0  8.5 10 0  9 10 0  9.5 10 0  10 10 0  10.5 10 0  11 10 0  11.5 10 0  12 10 0  12.5 10 0  13 10 0  13.5 10 0  14 10 0  14.5 10 0  15 10 0  15.5 10 0  16 10 0  16.5 10 0  17 10 0  17.5 10 0  18 10 0  18.5 10 0  19 10 0  19.5 10 0  20 10 0  0 10.5 0  0.5 10.5 0  1 10.5 0  1.5 10.5 0  2 10.5 0  2.5 10.5 0  3 10.5 0  3.5 10.5 0  4 10.5 0  4.5 10.5 0  5 10.5 0  5.5 10.5 0  6 10.5 0  6.5 10.5 0  7 10.5 0  7.5 10.5 0  8 10.5 0  8.5 10.5 0  9 10.5 0  9.5 10.5 0  10 10.5 0  10.5 10.5 0  11 10.5 0  11.5 10.5 0  12 10.5 0  12.5 10.5 0  13 10.5 0  13.5 10.5 0  14 10.5 0  14.5 10.5 0  15 10.5 0  15.5 10.5 0  16 10.5 0  16.5 10.5 0  17 10.5 0  17.5 10.5 0  18 10.5 0  18.5 10.5 0  19 10.5 0  19.5 10.5 0  20 10.5 0  0 11 0  0.5 11 0  1 11 0  1.5 11 0  2 11 0  2.5 11 0  3 11 0  3.5 11 0  4 11 0  4.5 11 0  5 11 0  5.5 11 0  6 11 0  6.5 11 0  7 11 0  7.5 11 0  8 11 0  8.5 11 0  9 11 0  9.5 11 0  10 11 0  10.5 11 0  11 11 0  11.5 11 0  12 11 0  12.5 11 0  13 11 0  13.5 11 0  14 11 0  14.5 11 0  15 11 0  15.5 11 0  16 11 0  16.5 11 0  17 11 0  17.5 11 0  18 11 0  18.5 11 0  19 11 0  19.5 11 0  20 11 0  0 11.5 0  0.5 11.5 0  1 11.5 0  1.5 11.5 0  2 11.5 0  2.5 11.5 0  3 11.5 0  3.5 11.5 0  4 11.5 0  4.5 11.5 0  5 11.5 0  5.5 11.5 0  6 11.5 0  6.5 11.5 0  7 11.5 0  7.5 11.5 0  8 11.5 0  8.5 11.5 0  9 11.5 0  9.5 11.5 0  10 11.5 0  10.5 11.5 0  11 11.5 0  11.5 11.5 0  12 11.5 0  12.5 11.5 0  13 11.5 0  13.5 11.5 0  14 11.5 0  14.5 11.5 0  15 11.5 0  15.5 11.5 0  16 11.5 0  16.5 11.5 0  17 11.5 0  17.5 11.5 0  18 11.5 0  18.5 11.5 0  19 11.5 0  19.5 11.5 0  20 11.5 0  0 12 0  0.5 12 0  1 12 0  1.5 12 0  2 12 0  2.5 12 0  3 12 0  3.5 12 0  4 12 0  4.5 12 0  5 12 0  5.5 12 0  6 12 0  6.5 12 0  7 12 0  7.5 12 0  8 12 0  8.5 12 0  9 12 0  9.5 12 0  10 12 0  10.5 12 0  11 12 0  11.5 12 0  12 12 0  12.5 12 0  13 12 0  13.5 12 0  14 12 0  14.5 12 0  
[...]
<PointData  Vectors="f_5173-0"> 
<DataArray  type="Float64"  Name="f_5173-0"  NumberOfComponents="3" format="ascii">0.0000000000000000e+00 0.0000000000000000e+00 0.0000000000000000e+00  -1.0246871128570661e-08 0.0000000000000000e+00 0.0000000000000000e+00  -6.6667158431051971e-08 0.0000000000000000e+00 0.0000000000000000e+00  -2.1929008054639234e-07 0.0000000000000000e+00 0.0000000000000000e+00  -5.1563037147507403e-07 0.0000000000000000e+00 0.0000000000000000e+00  -1.0026315654013075e-06 0.0000000000000000e+00 0.0000000000000000e+00  -1.7264255399104515e-06 0.0000000000000000e+00 0.0000000000000000e+00  -2.7320585137835286e-06 0.0000000000000000e+00 0.0000000000000000e+00  -4.0632345088393602e-06 0.0000000000000000e+00 0.0000000000000000e+00  -5.7620498739027601e-06 0.0000000000000000e+00 0.0000000000000000e+00  -7.8687093978636804e-06 0.0000000000000000e+00 0.0000000000000000e+00  -1.0421221292620085e-05 0.0000000000000000e+00 0.0000000000000000e+00  -1.3455070316750546e-05 0.0000000000000000e+00 0.0000000000000000e+00  -1.7002869185718785e-05 0.0000000000000000e+00 0.0000000000000000e+00  -2.1093989216887101e-05 0.0000000000000000e+00 0.0000000000000000e+00  -2.5754172081705711e-05 0.0000000000000000e+00 0.0000000000000000e+00  -3.1005125584767045e-05 0.0000000000000000e+00 0.0000000000000000e+00  -3.6864107561855159e-05 0.0000000000000000e+00 0.0000000000000000e+00  -4.3343503214971762e-05 0.0000000000000000e+00 0.0000000000000000e+00  -5.0450402459212217e-05 0.0000000000000000e+00 0.0000000000000000e+00  -5.8186185017139591e-05 0.0000000000000000e+00 0.0000000000000000e+00  -6.6546121953508432e-05 0.0000000000000000e+00 0.0000000000000000e+00  -7.5519002869665490e-05 0.0000000000000000e+00 0.0000000000000000e+00  -8.5086797811410853e-05 0.0000000000000000e+00 0.0000000000000000e+00  -9.5224361468462511e-05 0.0000000000000000e+00 0.0000000000000000e+00  -1.0589918353534175e-04 0.0000000000000000e+00 0.0000000000000000e+00  -1.1707118111639526e-04 0.0000000000000000e+00 0.0000000000000000e+00  -1.2869251235820731e-04 0.0000000000000000e+00 0.0000000000000000e+00  -1.4070735408841205e-04 0.0000000000000000e+00 0.0000000000000000e+00  -1.5305149966285397e-04 0.0000000000000000e+00 0.0000000000000000e+00  -1.6565140363921261e-04 0.0000000000000000e+00 0.0000000000000000e+00  -1.7842161764697193e-04 0.0000000000000000e+00 0.0000000000000000e+00  -1.9125732296637274e-04 0.0000000000000000e+00 0.0000000000000000e+00  -2.0401074321727979e-04 0.0000000000000000e+00 0.0000000000000000e+00  -2.1641070369067129e-04 0.0000000000000000e+00 0.0000000000000000e+00  -2.2777113968348362e-04 0.0000000000000000e+00 0.0000000000000000e+00  -2.3589225216496932e-04 0.0000000000000000e+00 0.0000000000000000e+00  -2.3284752176301187e-04 0.0000000000000000e+00 0.0000000000000000e+00  -1.8906292844965021e-04 0.0000000000000000e+00 0.0000000000000000e+00  9.6946122059613007e-07 0.0000000000000000e+00 0.0000000000000000e+00  6.6256448888378906e-04 0.0000000000000000e+00 0.0000000000000000e+00  0.0000000000000000e+00 -1.0246870725322344e-08 0.0000000000000000e+00  1.6864490336392093e-08 1.6864491018953493e-08 0.0000000000000000e+00  -1.5984850680940711e-08 8.9804406856913208e-08 0.0000000000000000e+00  -1.4472444054634811e-07 2.0988524673591898e-07 0.0000000000000000e+00  -4.1705990701667118e-07 3.7718191409641220e-07 0.0000000000000000e+00  -8.8004792623462319e-07 5.9107672501232338e-07 0.0000000000000000e+00  -1.5798575379590841e-06 8.5061171833133325e-07 0.0000000000000000e+00  -2.5615632405711490e-06 1.1545728456241078e-06 0.0000000000000000e+00  -3.8689044584673269e-06 1.5014910484902437e-06 0.0000000000000000e+00  -5.5440230041708802e-06 1.8896246232837738e-06 0.0000000000000000e+00  -7.6271801571563381e-06 2.3169379295310656e-06 0.0000000000000000e+00  -1.0156452431746089e-05 2.7810793448210087e-06 0.0000000000000000e+00  -1.3167405312827264e-05 3.2793591959520953e-06 0.0000000000000000e+00  -1.6692744964642253e-05 3.8087282581497244e-06 0.0000000000000000e+00  -2.0761948765909932e-05 4.3657576216623028e-06 0.0000000000000000e+00  -2.5400876434952384e-05 4.9466209016316406e-06 0.0000000000000000e+00  -3.0631364624412171e-05 5.5470799047999665e-06 0.0000000000000000e+00  -3.6470808980930776e-05 6.1624749758172862e-06 0.0000000000000000e+00  -4.2931738956113672e-05 6.7877212716433436e-06 0.0000000000000000e+00  -5.0021391884020630e-05 7.4173122001766270e-06 0.0000000000000000e+00  -5.7741294028909830e-05 8.0453311096956258e-06 0.0000000000000000e+00  -6.6086857292064856e-05 8.6654719963351649e-06 0.0000000000000000e+00  -7.5047000869885437e-05 9.2710694665388595e-06 0.0000000000000000e+00  -8.4603807049001592e-05 9.8551372039765107e-06 0.0000000000000000e+00  -9.4732219094161189e-05 1.0410412518778223e-05 0.0000000000000000e+00  -1.0539978593049419e-04 1.0929401630199599e-05 0.0000000000000000e+00  -1.1656645146078825e-04 1.1404414865104001e-05 0.0000000000000000e+00  -1.2818437241569018e-04 1.1827570402972263e-05 0.0000000000000000e+00  -1.4019771901368729e-04 1.2190723609073287e-05 0.0000000000000000e+00  -1.5254234345783368e-04 1.2485232639203527e-05 0.0000000000000000e+00  -1.6514501555117336e-04 1.2701368275962742e-05 0.0000000000000000e+00  -1.7792135191054407e-04 1.2826946085008213e-05 0.0000000000000000e+00  -1.9076958515063598e-04 1.2844263059429884e-05 0.0000000000000000e+00  -2.0354991826634477e-04 1.2723480996684621e-05 0.0000000000000000e+00  -2.1601023229197609e-04 1.2409459464070763e-05 0.0000000000000000e+00  -2.2750293591894635e-04 1.1800637359032634e-05 0.0000000000000000e+00  -2.3587355108865469e-04 1.0735548468033692e-05 0.0000000000000000e+00  -2.3309801281127298e-04 9.0650858739369122e-06 0.0000000000000000e+00  -1.8883972182308167e-04 6.9805826268034201e-06 0.0000000000000000e+00  4.0929935139642463e-06 5.4082271207951296e-06 0.0000000000000000e+00  6.6603678426159106e-04 3.8610125146061557e-06 0.0000000000000000e+00  0.0000000000000000e+00 -6.6667157819067821e-08 0.0000000000000000e+00  8.9804406952281799e-08 -1.5984850764456075e-08 0.0000000000000000e+00  1.2932126534565581e-07 1.2932126473344580e-07 0.0000000000000000e+00  7.2778683209911170e-08 3.6972364554854557e-07 0.0000000000000000e+00  -1.2738087006343281e-07 7.0457522317826985e-07 0.0000000000000000e+00  -5.1821995822232566e-07 1.1325473899104025e-06 0.0000000000000000e+00  -1.1459626383270694e-06 1.6517773760462011e-06 0.0000000000000000e+00  -2.0557589586879422e-06 2.2598894157814362e-06 0.0000000000000000e+00  -3.2914474771809009e-06 2.9539828102640368e-06 0.0000000000000000e+00  -4.8952985061476817e-06 3.7306036875321894e-06 0.0000000000000000e+00  -6.9077354013245203e-06 4.5857077470167147e-06 0.0000000000000000e+00  -9.3670331923018092e-06 5.5146184436253540e-06 0.0000000000000000e+00  -1.2308994143536411e-05 6.5119833833797190e-06 0.0000000000000000e+00  -1.5766600239529878e-05 7.5717310406695006e-06 0.0000000000000000e+00  -1.9769643288624439e-05 8.6870297891136705e-06 0.0000000000000000e+00  -2.4344334231829594e-05 9.8502513496256820e-06 0.0000000000000000e+00  -2.9512894279754800e-05 1.1052940981208495e-05 0.0000000000000000e+00  -3.5293131707845079e-05 1.2285796855368996e-05 0.0000000000000000e+00  -4.1698009385541816e-05 1.3538661179000779e-05 0.0000000000000000e+00  -4.8735209430561008e-05 1.4800525559730691e-05 0.0000000000000000e+00  -5.6406702636391719e-05 1.6059552836017999e-05 0.0000000000000000e+00  -6.4708331418028849e-05 1.7303117052806477e-05 0.0000000000000000e+00  -7.3629415828039410e-05 1.8517862202014536e-05 0.0000000000000000e+00  -8.3152392444796244e-05 1.9689778588217089e-05 0.0000000000000000e+00  -9.3252495357725549e-05 2.0804292730887388e-05 0.0000000000000000e+00  -1.0389748653657685e-04 2.1846361672844130e-05 0.0000000000000000e+00  -1.1504743878589854e-04 2.2800553772229507e-05 0.0000000000000000e+00  -1.2665456652058711e-04 2.3651082103382870e-05 0.0000000000000000e+00  -1.3866308322857377e-04 2.4381726695499382e-05 0.0000000000000000e+00  -1.5100902434682874e-04 2.4975524392442722e-05 0.0000000000000000e+00  -1.6361985053176049e-04 2.5413995322718449e-05 0.0000000000000000e+00  -1.7641319350421061e-04 2.5675475407862282e-05 0.0000000000000000e+00  -1.8929230022582166e-04 2.5731816172497071e-05 0.0000000000000000e+00  -2.0212830885306843e-04 2.5542459718492573e-05 0.0000000000000000e+00  -2.1468894282243199e-04 2.5045616618627077e-05 0.0000000000000000e+00  -2.2634915278195195e-04 2.4151008600818808e-05 0.0000000000000000e+00  -2.3492864218910875e-04 2.2753594876625147e-05 0.0000000000000000e+00  -2.3215227125476776e-04 2.0812347993326687e-05 0.0000000000000000e+00  -1.8691931216468377e-04 1.8507293987104122e-05 0.0000000000000000e+00  8.7182608567479931e-06 1.6156134998141395e-05 0.0000000000000000e+00  6.7181429096192476e-04 1.2840242432223455e-05 0.0000000000000000e+00  0.0000000000000000e+00 -2.1929008052823680e-07 0.0000000000000000e+00  2.0988524679012075e-07 -1.4472444024069309e-07 0.0000000000000000e+00  3.6972364491783176e-07 7.2778683143034531e-08 0.0000000000000000e+00  4.3330022170274623e-07 4.3330022238205888e-07 0.0000000000000000e+00  3.5321159694792610e-07 9.3563132938189637e-07 0.0000000000000000e+00  8.2381881084618533e-08 1.5777278228339051e-06 0.0000000000000000e+00  -4.2547738404336529e-07 2.3568022005551415e-06 0.0000000000000000e+00  -1.2156249487679086e-06 3.2693272628028578e-06 0.0000000000000000e+00  -2.3320553454631515e-06 4.3110027206603685e-06 0.0000000000000000e+00  -3.8172468257955668e-06 5.4767053776840807e-06 0.0000000000000000e+00  -5.7118877111445177e-06 6.7604304598401721e-06 0.0000000000000000e+00  -8.0545794158884320e-06 8.1552276815268818e-06 0.0000000000000000e+00  -1.0881515169187982e-05 9.6531347005360499e-06 0.0000000000000000e+00  -1.4226134034435083e-05 1.1245110688097378e-05 0.0000000000000000e+00  -1.8118750598698662e-05 1.2920972893670861e-05 0.0000000000000000e+00  -2.2586161551187585e-05 1.4669339403473460e-05 0.0000000000000000e+00  -2.7651231438108648e-05 1.6477581587861402e-05 0.0000000000000000e+00  -3.3332461071445203e-05 1.8331789986232024e-05 0.0000000000000000e+00  -3.9643543385253514e-05 2.0216757516483129e-05 0.0000000000000000e+00  -4.6592912910142511e-05 2.2115983871825974e-05 0.0000000000000000e+00  -5.4183296427938584e-05 2.4011704602024761e-05 0.0000000000000000e+00  -6.2411273676635603e-05 2.5884947648683864e-05 0.0000000000000000e+00  -7.1266858074194860e-05 2.7715618713348473e-05 0.0000000000000000e+00  -8.0733108223672090e-05 2.9482614530716533e-05 0.0000000000000000e+00  -9.0785781225293297e-05 3.1163959400197924e-05 0.0000000000000000e+00  -1.0139303845020391e-04 3.2736954299623237e-05 0.0000000000000000e+00  -1.1251521325772349e-04 3.4178318100386469e-05 0.0000000000000000e+00  -1.2410464767372711e-04 3.5464284165884404e-05 0.0000000000000000e+00  -1.3610559917561445e-04 3.6570588584698921e-05 0.0000000000000000e+00  -1.4845419716704963e-04 3.7472241723445781e-05 0.0000000000000000e+00  -1.6107833308633474e-04 3.8142906227928618e-05 0.0000000000000000e+00  -1.7389693583406537e-04 3.8553617807374122e-05 0.0000000000000000e+00  -1.8681619573828828e-04 3.8670542926988063e-05 0.0000000000000000e+00  -1.9971233931987659e-04 3.8451709011217441e-05 0.0000000000000000e+00  -2.1235800833238478e-04 3.7843809890011260e-05 0.0000000000000000e+00  -2.2411985204474148e-04 3.6783421926763110e-05 0.0000000000000000e+00  -2.3275561610015111e-04 3.5212425393076925e-05 0.0000000000000000e+00  -2.2979773700701128e-04 3.3117008714982723e-05 0.0000000000000000e+00  -1.8381299877772556e-04 3.0561391859815403e-05 0.0000000000000000e+00  1.3116680039236350e-05 2.7572619406135506e-05 0.0000000000000000e+00  6.7634628248512360e-04 2.3724604819193726e-05 0.0000000000000000e+00  0.0000000000000000e+00 -5.1563037118982997e-07 0.0000000000000000e+00  3.7718191394074915e-07 -4.1705990637281671e-07 0.0000000000000000e+00  7.0457522210951385e-07 -1.2738086986345268e-07 0.0000000000000000e+00  9.3563132862992307e-07 3.5321159768541572e-07 0.0000000000000000e+00  1.0230076450202135e-06 1.0230076460788676e-06 0.0000000000000000e+00  9.1960336253399527e-07 1.8792807399804521e-06 0.0000000000000000e+00  5.7904466311261070e-07 2.9183624749145795e-06 0.0000000000000000e+00  -4.4068917714578553e-08 4.1356231925761265e-06 0.0000000000000000e+00  -9.9393812401360413e-07 5.5254186375629968e-06 0.0000000000000000e+00  -2.3133208894103801e-06 7.0810198430097008e-06 0.0000000000000000e+00  -4.0432663955084164e-06 8.7945322930769618e-06 0.0000000000000000e+00  -6.2228244271125043e-06 1.0656808120312063e-05 0.0000000000000000e+00  -8.8887287493910566e-06 1.2657354568054490e-05 0.0000000000000000e+00  -1.2075053682918625e-05 1.4784242115666602e-05 0.0000000000000000e+00  -1.5812843725808146e-05 1.7024015990324619e-05 0.0000000000000000e+00  -2.0129716939512338e-05 1.9361615253702904e-05 0.0000000000000000e+00  -2.5049443868192917e-05 2.1780304137845098e-05 0.0000000000000000e+00  -3.0591504994335708e-05 2.4261620670664712e-05 0.0000000000000000e+00  -3.6770631102260615e-05 2.6785347906561706e-05 0.0000000000000000e+00  -4.3596332426610796e-05 2.9329513077152291e-05 0.0000000000000000e+00  -5.1072424030293606e-05 3.1870419649124923e-05 0.0000000000000000e+00  -5.9196556429934376e-05 3.4382716449937114e-05 0.0000000000000000e+00  -6.7959762027737465e-05 3.6839506425914710e-05 0.0000000000000000e+00  -7.7346029254804187e-05 3.9212495066060727e-05 0.0000000000000000e+00  -8.7331917551190512e-05 4.1472174460384641e-05 0.0000000000000000e+00  -9.7886227385150277e-05 4.3588032808054244e-05 0.0000000000000000e+00  -1.0896974055233310e-04 4.5528769959767027e-05 0.0000000000000000e+00  -1.2053504713573104e-04 4.7262485830073588e-05 0.0000000000000000e+00  -1.3252647456126688e-04 4.8756788825708806e-05 0.0000000000000000e+00  -1.4488011761242022e-04 4.9978745211003604e-05 0.0000000000000000e+00  -1.5752386950072309e-04 5.0894562559540385e-05 0.0000000000000000e+00  -1.7037688190932202e-04 5.1468892679928047e-05 0.0000000000000000e+00  -1.8334583455463505e-04 5.1663715449063169e-05 0.0000000000000000e+00  -1.9630696819049995e-04 5.1437068751283667e-05 0.0000000000000000e+00  -2.0902923580008275e-04 5.0742650307470352e-05 0.0000000000000000e+00  -2.2086299964436300e-04 4.9532618945473534e-05 0.0000000000000000e+00  -2.2952035984456599e-04 4.7766771463214616e-05 0.0000000000000000e+00  -2.2644659746320190e-04 4.5427761376312282e-05 0.0000000000000000e+00  -1.8013306973228385e-04 4.2528272671828194e-05 0.0000000000000000e+00  1.7176926900332305e-05 3.9080565207475568e-05 0.0000000000000000e+00  6.8027716231571053e-04 3.5025028501740746e-05 0.0000000000000000e+00  0.0000000000000000e+00 -1.0026315648644154e-06 0.0000000000000000e+00  5.9107672514959915e-07 -8.8004792556097037e-07 0.0000000000000000e+00  1.1325473897498868e-06 -5.1821995754350382e-07 0.0000000000000000e+00  1.5777278224759572e-06 8.2381881873658734e-08 0.0000000000000000e+00  1.8792807395578189e-06 9.1960336373843663e-07 0.0000000000000000e+00  1.9900826168528426e-06 1.9900826176254908e-06 0.0000000000000000e+00  1.8636665304058497e-06 3.2893252568789158e-06 0.0000000000000000e+00  1.4544665439890491e-06 4.8116661391116221e-06 0.0000000000000000e+00  7.1803383092173421e-07 6.5501954539350845e-06 0.0000000000000000e+00  -3.8873206614917774e-07 8.4966667912397965e-06 0.0000000000000000e+00  -1.9073280982265102e-06 1.0641392730954227e-05 0.0000000000000000e+00  -3.8773660883560581e-06 1.2973131524526453e-05 0.0000000000000000e+00  -6.3362629163184898e-06 1.5478968429845183e-05 0.0000000000000000e+00  -9.3189012295576729e-06 1.8144195693742418e-05 0.0000000000000000e+00  -1.2857259923634989e-05 2.0952195723949186e-05 0.0000000000000000e+00  -1.6980014475714776e-05 2.3884332666408072e-05 0.0000000000000000e+00  -2.1712108251718632e-05 2.6919858201497403e-05 0.0000000000000000e+00  -2.7074297147137891e-05 3.0035837977271015e-05 0.0000000000000000e+00  -3.3082671390077546e-05 3.3207105487480447e-05 0.0000000000000000e+00  -3.9748159982331479e-05 3.6406250351814620e-05 0.0000000000000000e+00  -4.7076025053202854e-05 3.9603647718760836e-05 0.0000000000000000e+00  -5.5065355328339955e-05 4.2767534698912336e-05 0.0000000000000000e+00  -6.3708569914745124e-05 4.5864138156813789e-05 0.0000000000000000e+00  -7.2990945668788818e-05 4.8857855594194103e-05 0.0000000000000000e+00  -8.2890183535809544e-05 5.1711486841097695e-05 0.0000000000000000e+00  -9.3376031570348693e-05 5.4386508519739688e-05 0.0000000000000000e+00  -1.0440998502871297e-04 5.6843375209057940e-05 0.0000000000000000e+00  -1.1594508684989490e-04 5.9041820683911399e-05 0.0000000000000000e+00  -1.2792585205192495e-04 6.0941119921609513e-05 0.0000000000000000e+00  -1.4028832061556800e-04 6.2500260338282292e-05 0.0000000000000000e+00  -1.5296013073193266e-04 6.3677966869966516e-05 0.0000000000000000e+00  -1.6585998803206054e-04 6.4432549460179594e-05 0.0000000000000000e+00  -1.7889375001858636e-04 6.4721631736010691e-05 0.0000000000000000e+00  -1.9193570723568818e-04 6.4502034497999414e-05 0.0000000000000000e+00  -2.0474978971330785e-04 6.3730470066976989e-05 0.0000000000000000e+00  -2.1667469002557263e-04 6.2366157053090116e-05 0.0000000000000000e+00  -2.2540074091384341e-04 6.0376553749959148e-05 0.0000000000000000e+00  -2.2234654994040574e-04 5.7746521096514957e-05 0.0000000000000000e+00  -1.7600331508723450e-04 5.4490291022580717e-05 0.0000000000000000e+00  2.1304344527104380e-05 5.0664901970938959e-05 0.0000000000000000e+00  6.8428750915379085e-04 4.6327276624226359e-05 0.0000000000000000e+00  0.0000000000000000e+00 -1.7264255388067845e-06 0.0000000000000000e+00  8.5061171781295903e-07 -1.5798575371912515e-06 0.0000000000000000e+00  1.6517773755157973e-06 -1.1459626378436118e-06 0.0000000000000000e+00  2.3568022001415858e-06 -4.2547738285429954e-07 0.0000000000000000e+00  2.9183624745313369e-06 5.7904466438096906e-07 0.0000000000000000e+00  3.2893252561325180e-06 1.8636665314307413e-06 0.0000000000000000e+00  3.4231381020477394e-06 3.4231381032708101e-06 0.0000000000000000e+00  3.2740609751284065e-06 5.2508428299736686e-06 0.0000000000000000e+00  2.7973690919389999e-06 7.3387037048513431e-06 0.0000000000000000e+00  1.9495696770812359e-06 9.6770684562872433e-06 0.0000000000000000e+00  6.8864335259214749e-07 1.2254579852049519e-05 0.0000000000000000e+00  -1.0256861814831687e-06 1.5058034748622864e-05 0.0000000000000000e+00  -3.2316518052309862e-06 1.8072235677216860e-05 0.0000000000000000e+00  -5.9651100266563646e-06 2.1279839464469642e-05 0.0000000000000000e+00  -9.2591739671525112e-06 2.4661208147236514e-05 0.0000000000000000e+00  -1.3143811572262725e-05 2.8194268384851732e-05 0.0000000000000000e+00  -1.7645409353504908e-05 3.1854386331587771e-05 0.0000000000000000e+00  -2.2786303227534097e-05 3.5614265805986205e-05 0.0000000000000000e+00  -2.8584279583440444e-05 3.9443878182293122e-05 0.0000000000000000e+00  -3.5052051498173655e-05 4.3310432812220719e-05 0.0000000000000000e+00  -4.2196717130287181e-05 4.7178396729356982e-05 0.0000000000000000e+00  -5.0019209626446074e-05 5.1009571752892954e-05 0.0000000000000000e+00  -5.8513750442607497e-05 5.4763235693170551e-05 0.0000000000000000e+00  -6.7667320802638280e-05 5.8396351902935070e-05 0.0000000000000000e+00  -7.7459169080158489e-05 6.1863847763368851e-05 0.0000000000000000e+00  -8.7860375363266893e-05 6.5118957480549377e-05 0.0000000000000000e+00  -9.8833498356278723e-05 6.8113617947905333e-05 0.0000000000000000e+00  -1.1033233364694575e-04 7.0798898577697055e-05 0.0000000000000000e+00  -1.2230181220032924e-04 7.3125438387601057e-05 0.0000000000000000e+00  -1.3467804511339598e-04 7.5043859562743973e-05 0.0000000000000000e+00  -1.4738839591053787e-04 7.6505133435542482e-05 0.0000000000000000e+00  -1.6035091831600207e-04 7.7460905544496410e-05 0.0000000000000000e+00  -1.7347029335463825e-04 7.7863861470598127e-05 0.0000000000000000e+00  -1.8661870903709785e-04 7.7668356967702633e-05 0.0000000000000000e+00  -1.9955630049046935e-04 7.683175284856373