<?xml version="1.0"?>
<VTKFile type="UnstructuredGrid"  version="0.1"  >
<UnstructuredGrid>
<Piece  NumberOfPoints="3069" NumberOfCells="12882">
<Points>
<DataArray  type="Float64"  NumberOfComponents="3"  format="ascii">0 0 0  0 0 4  0 5.65685415 0  50 0 4  50 5.65685415 0  50 0 0  0 0 1  0 0 2  0 0 3  0 1.04967844 3.90746784  0 2.0669806 3.632725  0 3.02052855 3.18424606  0 3.88091111 2.5758636  0 4.62159061 1.82634306  0 5.21972132 0.958802283  0 4.71404505 0  0 3.77123618 0  0 2.82842708 0  0 1.88561809 0  0 0.942809045 0  0.5 0 4  1 0 4  1.5 0 4  2 0 4  2.5 0 4  3 0 4  3.5 0 4  4 0 4  4.5 0 4  5 0 4  5.5 0 4  6 0 4  6.5 0 4  7 0 4  7.5 0 4  8 0 4  8.5 0 4  9 0 4  9.5 0 4  10 0 4  10.5 0 4  11 0 4  11.5 0 4  12 0 4  12.5 0 4  13 0 4  13.5 0 4  14 0 4  14.5 0 4  15 0 4  15.5 0 4  16 0 4  16.5 0 4  17 0 4  17.5 0 4  18 0 4  18.5 0 4  19 0 4  19.5 0 4  20 0 4  20.5 0 4  21 0 4  21.5 0 4  22 0 4  22.5 0 4  23 0 4  23.5 0 4  24 0 4  24.5 0 4  25 0 4  25.5 0 4  26 0 4  26.5 0 4  27 0 4  27.5 0 4  28 0 4  28.5 0 4  29 0 4  29.5 0 4  30 0 4  30.5 0 4  31 0 4  31.5 0 4  32 0 4  32.5 0 4  33 0 4  33.5 0 4  34 0 4  34.5 0 4  35 0 4  35.5 0 4  36 0 4  36.5 0 4  37 0 4  37.5 0 4  38 0 4  38.5 0 4  39 0 4  39.5 0 4  40 0 4  40.5 0 4  41 0 4  41.5 0 4  42 0 4  42.5 0 4  43 0 4  43.5 0 4  44 0 4  44.5 0 4  45 0 4  45.5 0 4  46 0 4  46.5 0 4  47 0 4  47.5 0 4  48 0 4  48.5 0 4  49 0 4  49.5 0 4  50 1.04967844 3.90746784  50 2.0669806 3.632725  50 3.02052855 3.18424606  50 3.88091111 2.5758636  50 4.62159061 1.82634306  50 5.21972132 0.958802283  49.5 5.65685415 0  49 5.65685415 0  48.5 5.65685415 0  48 5.65685415 0  47.5 5.65685415 0  47 5.65685415 0  46.5 5.65685415 0  46 5.65685415 0  45.5 5.65685415 0  45 5.65685415 0  44.5 5.65685415 0  44 5.65685415 0  43.5 5.65685415 0  43 5.65685415 0  42.5 5.65685415 0  42 5.65685415 0  41.5 5.65685415 0  41 5.65685415 0  40.5 5.65685415 0  40 5.65685415 0  39.5 5.65685415 0  39 5.65685415 0  38.5 5.65685415 0  38 5.65685415 0  37.5 5.65685415 0  37 5.65685415 0  36.5 5.65685415 0  36 5.65685415 0  35.5 5.65685415 0  35 5.65685415 0  34.5 5.65685415 0  34 5.65685415 0  33.5 5.65685415 0  33 5.65685415 0  32.5 5.65685415 0  32 5.65685415 0  31.5 5.65685415 0  31 5.65685415 0  30.5 5.65685415 0  30 5.65685415 0  29.5 5.65685415 0  29 5.65685415 0  28.5 5.65685415 0  28 5.65685415 0  27.5 5.65685415 0  27 5.65685415 0  26.5 5.65685415 0  26 5.65685415 0  25.5 5.65685415 0  25 5.65685415 0  24.5 5.65685415 0  24 5.65685415 0  23.5 5.65685415 0  23 5.65685415 0  22.5 5.65685415 0  22 5.65685415 0  21.5 5.65685415 0  21 5.65685415 0  20.5 5.65685415 0  20 5.65685415 0  19.5 5.65685415 0  19 5.65685415 0  18.5 5.65685415 0  18 5.65685415 0  17.5 5.65685415 0  17 5.65685415 0  16.5 5.65685415 0  16 5.65685415 0  15.5 5.65685415 0  15 5.65685415 0  14.5 5.65685415 0  14 5.65685415 0  13.5 5.65685415 0  13 5.65685415 0  12.5 5.65685415 0  12 5.65685415 0  11.5 5.65685415 0  11 5.65685415 0  10.5 5.65685415 0  10 5.65685415 0  9.5 5.65685415 0  9 5.65685415 0  8.5 5.65685415 0  8 5.65685415 0  7.5 5.65685415 0  7 5.65685415 0  6.5 5.65685415 0  6 5.65685415 0  5.5 5.65685415 0  5 5.65685415 0  4.5 5.65685415 0  4 5.65685415 0  3.5 5.65685415 0  3 5.65685415 0  2.5 5.65685415 0  2 5.65685415 0  1.5 5.65685415 0  1 5.65685415 0  0.5 5.65685415 0  50 4.71404505 0  50 3.77123618 0  50 2.82842708 0  50 1.88561809 0  50 0.942809045 0  49.5 0 0  49 0 0  48.5 0 0  48 0 0  47.5 0 0  47 0 0  46.5 0 0  46 0 0  45.5 0 0  45 0 0  44.5 0 0  44 0 0  43.5 0 0  43 0 0  42.5 0 0  42 0 0  41.5 0 0  41 0 0  40.5 0 0  40 0 0  39.5 0 0  39 0 0  38.5 0 0  38 0 0  37.5 0 0  37 0 0  36.5 0 0  36 0 0  35.5 0 0  35 0 0  34.5 0 0  34 0 0  33.5 0 0  33 0 0  32.5 0 0  32 0 0  31.5 0 0  31 0 0  30.5 0 0  30 0 0  29.5 0 0  29 0 0  28.5 0 0  28 0 0  27.5 0 0  27 0 0  26.5 0 0  26 0 0  25.5 0 0  25 0 0  24.5 0 0  24 0 0  23.5 0 0  23 0 0  22.5 0 0  22 0 0  21.5 0 0  21 0 0  20.5 0 0  20 0 0  19.5 0 0  19 0 0  18.5 0 0  18 0 0  17.5 0 0  17 0 0  16.5 0 0  16 0 0  15.5 0 0  15 0 0  14.5 0 0  14 0 0  13.5 0 0  13 0 0  12.5 0 0  12 0 0  11.5 0 0  11 0 0  10.5 0 0  10 0 0  9.5 0 0  9 0 0  8.5 0 0  8 0 0  7.5 0 0  7 0 0  6.5 0 0  6 0 0  5.5 0 0  5 0 0  4.5 0 0  4 0 0  3.5 0 0  3 0 0  2.5 0 0  2 0 0  1.5 0 0  1 0 0  0.5 0 0  50 0 1  50 0 2  50 0 3  0 2.33524275 0.893602192  0 2.87561393 1.93323028  0 4.2367816 0.876864135  0 2.00050235 2.65534091  0 0.981494486 2.34323239  0 3.78543234 1.61830366  0 3.30545568 0.887000024  0 0.812916458 1.58408713  0 1.71948838 1.71268857  0 1.28267908 0.8650629520000001  0 1.21973121 3.10775328  0.5 5.21972132 0.958802223  0.5 4.62159061 1.82634306  0.5 3.88091111 2.5758636  0.5 3.02052855 3.18424606  0.5 2.0669806 3.632725  0.5 1.04967844 3.90746784  1 5.21972132 0.958802223  1 4.62159061 1.82634306  1 3.88091111 2.5758636  1 3.02052855 3.18424606  1 2.0669806 3.632725  1 1.04967844 3.90746784  1.5 5.21972132 0.958802223  1.5 4.62159061 1.82634306  1.5 3.88091111 2.5758636  1.5 3.02052855 3.18424606  1.5 2.0669806 3.632725  1.5 1.04967844 3.90746784  2 5.21972132 0.958802223  2 4.62159061 1.82634306  2 3.88091111 2.5758636  2 3.02052855 3.18424606  2 2.0669806 3.632725  2 1.04967844 3.90746784  2.5 5.21972132 0.958802223  2.5 4.62159061 1.82634306  2.5 3.88091111 2.5758636  2.5 3.02052855 3.18424606  2.5 2.0669806 3.632725  2.5 1.04967844 3.90746784  3 5.21972132 0.958802223  3 4.62159061 1.82634306  3 3.88091111 2.5758636  3 3.02052855 3.18424606  3 2.0669806 3.632725  3 1.04967844 3.90746784  3.5 5.21972132 0.958802223  3.5 4.62159061 1.82634306  3.5 3.88091111 2.5758636  3.5 3.02052855 3.18424606  3.5 2.0669806 3.632725  3.5 1.04967844 3.90746784  4 5.21972132 0.958802223  4 4.62159061 1.82634306  4 3.88091111 2.5758636  4 3.02052855 3.18424606  4 2.0669806 3.632725  4 1.04967844 3.90746784  4.5 5.21972132 0.958802223  4.5 4.62159061 1.82634306  4.5 3.88091111 2.5758636  4.5 3.02052855 3.18424606  4.5 2.0669806 3.632725  4.5 1.04967844 3.90746784  5 5.21972132 0.958802223  5 4.62159061 1.82634306  5 3.88091111 2.5758636  5 3.02052855 3.18424606  5 2.0669806 3.632725  5 1.04967844 3.90746784  5.5 5.21972132 0.958802223  5.5 4.62159061 1.82634306  5.5 3.88091111 2.5758636  5.5 3.02052855 3.18424606  5.5 2.0669806 3.632725  5.5 1.04967844 3.90746784  6 5.21972132 0.958802223  6 4.62159061 1.82634306  6 3.88091111 2.5758636  6 3.02052855 3.18424606  6 2.0669806 3.632725  6 1.04967844 3.90746784  6.5 5.21972132 0.958802223  6.5 4.62159061 1.82634306  6.5 3.88091111 2.5758636  6.5 3.02052855 3.18424606  6.5 2.0669806 3.632725  6.5 1.04967844 3.90746784  7 5.21972132 0.958802223  7 4.62159061 1.82634306  7 3.88091111 2.5758636  7 3.02052855 3.18424606  7 2.0669806 3.632725  7 1.04967844 3.90746784  7.5 5.21972132 0.958802223  7.5 4.62159061 1.82634306  7.5 3.88091111 2.5758636  7.5 3.02052855 3.18424606  7.5 2.0669806 3.632725  7.5 1.04967844 3.90746784  8 5.21972132 0.958802223  8 4.62159061 1.82634306  8 3.88091111 2.5758636  8 3.02052855 3.18424606  8 2.0669806 3.632725  8 1.04967844 3.90746784  8.5 5.21972132 0.958802223  8.5 4.62159061 1.82634306  8.5 3.88091111 2.5758636  8.5 3.02052855 3.18424606  8.5 2.0669806 3.632725  8.5 1.04967844 3.90746784  9 5.21972132 0.958802223  9 4.62159061 1.82634306  9 3.88091111 2.5758636  9 3.02052855 3.18424606  9 2.0669806 3.632725  9 1.04967844 3.90746784  9.5 5.21972132 0.958802223  9.5 4.62159061 1.82634306  9.5 3.88091111 2.5758636  9.5 3.02052855 3.18424606  9.5 2.0669806 3.632725  9.5 1.04967844 3.90746784  10 5.21972132 0.958802223  10 4.62159061 1.82634306  10 3.88091111 2.5758636  10 3.02052855 3.18424606  10 2.0669806 3.632725  10 1.04967844 3.90746784  10.5 5.21972132 0.958802223  10.5 4.62159061 1.82634306  10.5 3.88091111 2.5758636  10.5 3.02052855 3.18424606  10.5 2.0669806 3.632725  10.5 1.04967844 3.90746784  11 5.21972132 0.958802223  11 4.62159061 1.82634306  11 3.88091111 2.5758636  11 3.02052855 3.18424606  11 2.0669806 3.632725  11 1.04967844 3.90746784  11.5 5.21972132 0.958802223  11.5 4.62159061 1.82634306  11.5 3.88091111 2.5758636  11.5 3.02052855 3.18424606  11.5 2.0669806 3.632725  11.5 1.04967844 3.90746784  12 5.21972132 0.958802223  12 4.62159061 1.82634306  12 3.88091111 2.5758636  12 3.02052855 3.18424606  12 2.0669806 3.632725  12 1.04967844 3.90746784  12.5 5.21972132 0.958802223  12.5 4.62159061 1.82634306  12.5 3.88091111 2.5758636  12.5 3.02052855 3.18424606  12.5 2.0669806 3.632725  12.5 1.04967844 3.90746784  13 5.21972132 0.958802223  13 4.62159061 1.82634306  13 3.88091111 2.5758636  13 3.02052855 3.18424606  13 2.0669806 3.632725  13 1.04967844 3.90746784  13.5 5.21972132 0.958802223  13.5 4.62159061 1.82634306  13.5 3.88091111 2.5758636  13.5 3.02052855 3.18424606  13.5 2.0669806 3.632725  13.5 1.04967844 3.90746784  14 5.21972132 0.958802223  14 4.62159061 1.82634306  14 3.88091111 2.5758636  14 3.02052855 3.18424606  14 2.0669806 3.632725  14 1.04967844 3.90746784  14.5 5.21972132 0.958802223  14.5 4.62159061 1.82634306  14.5 3.88091111 2.5758636  14.5 3.02052855 3.18424606  14.5 2.0669806 3.632725  14.5 1.04967844 3.90746784  15 5.21972132 0.958802223  15 4.62159061 1.82634306  15 3.88091111 2.5758636  15 3.02052855 3.18424606  15 2.0669806 3.632725  15 1.04967844 3.90746784  15.5 5.21972132 0.958802223  15.5 4.62159061 1.82634306  15.5 3.88091111 2.5758636  15.5 3.02052855 3.18424606  15.5 2.0669806 3.632725  15.5 1.04967844 3.90746784  16 5.21972132 0.958802223  16 4.62159061 1.82634306  16 3.88091111 2.5758636  16 3.02052855 3.18424606  16 2.0669806 3.632725  16 1.04967844 3.90746784  16.5 5.21972132 0.958802223  16.5 4.62159061 1.82634306  16.5 3.88091111 2.5758636  16.5 3.02052855 3.18424606  16.5 2.0669806 3.632725  16.5 1.04967844 3.90746784  17 5.21972132 0.958802223  17 4.62159061 1.82634306  17 3.88091111 2.5758636  17 3.02052855 3.18424606  17 2.0669806 3.632725  17 1.04967844 3.90746784  17.5 5.21972132 0.958802223  17.5 4.62159061 1.82634306  17.5 3.88091111 2.5758636  17.5 3.02052855 3.18424606  17.
[...]
<PointData  Scalars="f_261141-4"> 
<DataArray  type="Float64"  Name="f_261141-4"  format="ascii">6.4249502780857626e-01  4.6378967679314281e-01  6.7146688542385580e-01  2.1825893240143995e-01  6.5901999658091759e-01  6.1554704235282776e-01  4.6597603308225960e-01  3.8639789163479649e-01  4.0740269344128943e-01  5.5008996620160711e-01  5.9637040534824426e-01  6.0520202813405355e-01  6.1685528343296336e-01  6.3565493902935499e-01  6.5735196962012621e-01  6.7423265794972043e-01  6.6687168060240531e-01  6.4606588060688042e-01  6.4325951059052511e-01  6.4257299095733467e-01  4.5983942893389373e-01  4.6153101027885546e-01  4.5378934013416372e-01  4.6123225201792317e-01  4.5771121802093695e-01  4.6353538997164867e-01  4.5782816434669965e-01  4.6226037273438181e-01  4.5663358611000809e-01  4.6383762242583787e-01  4.5830696397899895e-01  4.6130514278336976e-01  4.6286792190760812e-01  4.6393851323991153e-01  4.5780368349431955e-01  4.6167267271363305e-01  4.6181767803290769e-01  4.6219483721749921e-01  4.5771877514760523e-01  4.6181232249977466e-01  4.5624008079910294e-01  4.5960749000820278e-01  4.5917936096492207e-01  4.6151049793526738e-01  4.5500621286367837e-01  4.6510162079735312e-01  4.6142018988041861e-01  4.5856285886828491e-01  4.7054655978581506e-01  4.6958979809029411e-01  4.6464825642232382e-01  4.6501039250971410e-01  4.5936193671793274e-01  4.6121076754885587e-01  4.6021506335070622e-01  4.6213909851659185e-01  4.6099657561605623e-01  4.5849126988677136e-01  4.6114001845129243e-01  4.6438576582805641e-01  4.6152556867669642e-01  4.6730677105557766e-01  4.5847436491472809e-01  4.6447094332536409e-01  4.6294385436665053e-01  4.6223838490452068e-01  4.5714755429648035e-01  4.6155886833913418e-01  4.5847869119249418e-01  4.5973260762749296e-01  4.5755724909750284e-01  4.5686924848075727e-01  4.5786091158307690e-01  4.5773437410947820e-01  4.5528641682144527e-01  4.6164981095877966e-01  4.6095219650651348e-01  4.5744794315105031e-01  4.5646195388256794e-01  4.6225587199526291e-01  4.5789383206369433e-01  4.5373368579986889e-01  4.6071806483606559e-01  4.6043046453425274e-01  4.5467264693474446e-01  4.6264562096747441e-01  4.6271771445519383e-01  4.5734501851150228e-01  4.6884697801367453e-01  4.6399684774729888e-01  4.5828169483450626e-01  4.6504460264968939e-01  4.5889692193548137e-01  4.6336372993676722e-01  4.6065529986600667e-01  4.5924345055290300e-01  4.6386866845016983e-01  4.5969576376921517e-01  4.6512057859335487e-01  4.6117990015256932e-01  4.5713518713023343e-01  4.6095236389470412e-01  4.6232036624718814e-01  4.5764489654802376e-01  4.6390822792413078e-01  4.5936557919360749e-01  4.5442112238709098e-01  4.6316423348954966e-01  4.6131617582455892e-01  4.5124416120414845e-01  4.5184429072791860e-01  4.3686119649046268e-01  4.2519635009552786e-01  3.9898705590134681e-01  3.5308045658291348e-01  3.0652685568190435e-01  2.6606543978977260e-01  2.3885983321280013e-01  2.2380484012234128e-01  2.2734522362461285e-01  2.4851731459532117e-01  2.7415551343515282e-01  3.2282456386558217e-01  4.1575027153672461e-01  5.3623090051750522e-01  6.6268431018136853e-01  6.6211821287889305e-01  6.6315463724253521e-01  6.6977682982834641e-01  6.7333194742081104e-01  6.7191220665580220e-01  6.7306029001154255e-01  6.7103530075477102e-01  6.7246325286448272e-01  6.7231549941062996e-01  6.7286392396605810e-01  6.6915464707799577e-01  6.7275675971616267e-01  6.6836326547802383e-01  6.7593262998827353e-01  6.7324838666930231e-01  6.7202970679707719e-01  6.7112291225385368e-01  6.7058236442264407e-01  6.6790872422017700e-01  6.7237374969800356e-01  6.6853954844414964e-01  6.7142916462184843e-01  6.6885398559907350e-01  6.6826726347204146e-01  6.7174160591028942e-01  6.6965140118900957e-01  6.6764427261193893e-01  6.7184831421943736e-01  6.6993808126121190e-01  6.6900368023130208e-01  6.6982655751985454e-01  6.6908671395291097e-01  6.6970352887770668e-01  6.7135259091416977e-01  6.6932529569129828e-01  6.7056937574147524e-01  6.6968661959252962e-01  6.6940636345954618e-01  6.6993383930073114e-01  6.6763714458092660e-01  6.6990036472805048e-01  6.6924680022091920e-01  6.6882880678320855e-01  6.7062273966389474e-01  6.7081531309376086e-01  6.6847993643486936e-01  6.7124252091348013e-01  6.6824727783340432e-01  6.7180940175443749e-01  6.6793439739519678e-01  6.7118780263974642e-01  6.7287223919262429e-01  6.7190595224812943e-01  6.6982770366582167e-01  6.7272661702767145e-01  6.6874948262397893e-01  6.7059688604945944e-01  6.7216125689918949e-01  6.6884020644218944e-01  6.6807780840410347e-01  6.7022552084230547e-01  6.6965362309094023e-01  6.6808616820679090e-01  6.7110876112364259e-01  6.6859423268389362e-01  6.6985505702456916e-01  6.7061315916476016e-01  6.7118043109699976e-01  6.7085917743002754e-01  6.7147242261721884e-01  6.7003336196646368e-01  6.7097832074651298e-01  6.6888228514527981e-01  6.7008940834997233e-01  6.6815772815032992e-01  6.6916862936106303e-01  6.7028630436629821e-01  6.7185210727795208e-01  6.6929974695508332e-01  6.7097932969070029e-01  6.6953712787148156e-01  6.7016684623995659e-01  6.7157924478505837e-01  6.6974389479450536e-01  6.7133123540540840e-01  6.6983935541607842e-01  6.6928810299361030e-01  6.6910301563470564e-01  6.6935583102937324e-01  6.7076195912206815e-01  6.7111839515727412e-01  6.7039553617741199e-01  6.6829871291527299e-01  6.6705464355640809e-01  6.7152347880733843e-01  6.6838624824321735e-01  6.7243327598544567e-01  6.6701735002220430e-01  6.5068649630178721e-01  6.3937631944254658e-01  6.3071586966502702e-01  6.3292686032905143e-01  6.2705285174020153e-01  6.2777393268334325e-01  6.1813553735668425e-01  6.3245615626641871e-01  6.3665785305024869e-01  6.3092562284296927e-01  6.3502820895334111e-01  6.3056843373954419e-01  6.3663396633097569e-01  6.4278270977105734e-01  6.3866905942038099e-01  6.3913388777546987e-01  6.4468235599298229e-01  6.3966281190098184e-01  6.3883673294971333e-01  6.3762795577221376e-01  6.3706956994591502e-01  6.3706663899648397e-01  6.4061405722693787e-01  6.3774622568676687e-01  6.3674875138087306e-01  6.4135523719810128e-01  6.3666803217594381e-01  6.3926301464382507e-01  6.3713984603922147e-01  6.3517319082246226e-01  6.3889616549094608e-01  6.4258383104062533e-01  6.3657775526891491e-01  6.4454716065693030e-01  6.3509301810975960e-01  6.3533373018464256e-01  6.3954168980522208e-01  6.3939493672472514e-01  6.3818291211145250e-01  6.3921131264903464e-01  6.3792608159802755e-01  6.3745109208493533e-01  6.4085369756262123e-01  6.3638097501463553e-01  6.3899440155817788e-01  6.3787803382793740e-01  6.3825497390987762e-01  6.4183382795098520e-01  6.4054923743663839e-01  6.3850244314516980e-01  6.3789161276767647e-01  6.2916066684836947e-01  6.4051544936868698e-01  6.3868186732385501e-01  6.3688949083284396e-01  6.3838394231240647e-01  6.4215953196729092e-01  6.3754190635489283e-01  6.3811920490172835e-01  6.3936201850171148e-01  6.4266355337042158e-01  6.3808172305845434e-01  6.3405861028461696e-01  6.3991012152775362e-01  6.3546364822363910e-01  6.4164675019684947e-01  6.3798370284185357e-01  6.3931912834024529e-01  6.4447867871521047e-01  6.4229720786661915e-01  6.3863891455209654e-01  6.4128902525040155e-01  6.4019340550927750e-01  6.4167007327752990e-01  6.4613500202367924e-01  6.3683947483885461e-01  6.4010628145604265e-01  6.3620667211460480e-01  6.3699341025727363e-01  6.4119189183557301e-01  6.3703002714374779e-01  6.3937086668666754e-01  6.3821949450803805e-01  6.3651654957148163e-01  6.3730321087092801e-01  6.3479514724113728e-01  6.3483585677660215e-01  6.4080943105091259e-01  6.3579873563335698e-01  6.3595443664365969e-01  6.3786824546577880e-01  6.3925675645982605e-01  6.4470565656956536e-01  6.3378347680807656e-01  6.3338168967053987e-01  6.4505546990117435e-01  6.4168924474838218e-01  6.3762469545259604e-01  6.4243912672377623e-01  6.3369079825743091e-01  6.3674896730921382e-01  6.4101471222223250e-01  6.4448840629998072e-01  6.4615058939686498e-01  3.9720784734556508e-01  2.7404271569108474e-01  2.2870238258315803e-01  5.1757079137217366e-01  5.0398179457904613e-01  6.1138139617178966e-01  4.8864825410382901e-01  4.0509695664542472e-01  5.7921400637417531e-01  5.6583602428569746e-01  4.0927309133947920e-01  4.3499592097398987e-01  4.9159685516712609e-01  4.8336558115478112e-01  6.7791575467311604e-01  6.7332386316397486e-01  6.5253658371822898e-01  6.4517042534300950e-01  6.3157995108067255e-01  6.2266736669452116e-01  6.7236067170983804e-01  6.6237333144007027e-01  6.6173434960115252e-01  6.5556508364793598e-01  6.4888740232049513e-01  6.2743812274290522e-01  6.7790703966702703e-01  6.6914963387346293e-01  6.6531370423943847e-01  6.5883655261586815e-01  6.5328285208497128e-01  6.3411355477981279e-01  6.7137887077147951e-01  6.6408432659660466e-01  6.5816267753659663e-01  6.5423633961516103e-01  6.4825256541322696e-01  6.2615858650185852e-01  6.7866324552519064e-01  6.6867740683695975e-01  6.5383600376755213e-01  6.5441444953308969e-01  6.5134900691715136e-01  6.3266400914975773e-01  6.7651063868183980e-01  6.6493444277354097e-01  6.5764124854990880e-01  6.5862229004297179e-01  6.4009856270506094e-01  6.2060579838059726e-01  6.7476532708104497e-01  6.7022106924142710e-01  6.5821961102140436e-01  6.5745557347914430e-01  6.5660404814927398e-01  6.3666974792498698e-01  6.7698966015196871e-01  6.6605775102910314e-01  6.5873321654123373e-01  6.5749412271375185e-01  6.5393309686971224e-01  6.2360775159514925e-01  6.7120720259387046e-01  6.7349252024774320e-01  6.5847001251923032e-01  6.5764652278965474e-01  6.5242846522789055e-01  6.3181192862596303e-01  6.7688154079327068e-01  6.6978764312261996e-01  6.5846774731843316e-01  6.5742692781537015e-01  6.5975103848629191e-01  6.2320949506998746e-01  6.7690923925767688e-01  6.6994913099221720e-01  6.6173111510689375e-01  6.5611744911926029e-01  6.5388451555043692e-01  6.3569612708306611e-01  6.7538384513069538e-01  6.7065692975277991e-01  6.5599517707535049e-01  6.5737904381910328e-01  6.5561726470014381e-01  6.3388600736586664e-01  6.7912442975308596e-01  6.6935207154088494e-01  6.5897809557029741e-01  6.5585898037276802e-01  6.5223643092425854e-01  6.3090457119537635e-01  6.7276089105856629e-01  6.6684903639445270e-01  6.5760996745455458e-01  6.5330540072456977e-01  6.4663630924326698e-01  6.3294196963686589e-01  6.7563487995359428e-01  6.7131442202831326e-01  6.5249780295368331e-01  6.4947049904055609e-01  6.4723491099237529e-01  6.4779460577683468e-01  6.7452193357782120e-01  6.6553612702278775e-01  6.5595118698538113e-01  6.5216810126084879e-01  6.4599076672304101e-01  6.2433679354906324e-01  6.7517901845552197e-01  6.7288393562861315e-01  6.6500705047766140e-01  6.5758562499702877e-01  6.4467175173840596e-01  6.2262701627791894e-01  6.7457516187399325e-01  6.7095047124824292e-01  6.5857862841945092e-01  6.5480306765684126e-01  6.5629982614385063e-01  6.3097927195404546e-01  6.7751552801229209e-01  6.7199745771861841e-01  6.6230542489891253e-01  6.5414837892724909e-01  6.5592771114785764e-01  6.3060965196195651e-01  6.7473564260529528e-01  6.6847482557401949e-01  6.6145690572896287e-01  6.5739880166219922e-01  6.5488621205895159e-01  6.3966684905398796e-01  6.7268312242222150e-01  6.7169637957238404e-01  6.6205531055787570e-01  6.5340432646959823e-01  6.5174362224273319e-01  6.3553323389548300e-01  6.7691114555279852e-01  6.6778794762489690e-01  6.5738685504343464e-01  6.5595864228877010e-01  6.5067641196533732e-01  6.3973097749629915e-01  6.7311450820272534e-01  6.7336643520142281e-01  6.5984627860705958e-01  6.5210240149304277e-01  6.4828295450595574e-01  6.3216991163382830e-01  6.7841859789391279e-01  6.6984857403188680e-01  6.5832906828381932e-01  6.5540563303113608e-01  6.5190328379852847e-01  6.2876537245330744e-01  6.7376714883356525e-01  6.6608286865586608e-01  6.5548163812033211e-01  6.5081808699575694e-01  6.5784634519601393e-01  6.3867936592450092e-01  6.7847036448768305e-01  6.7101807676526604e-01  6.5881068234262419e-01  6.5057861336129319e-01  6.5446969830564861e-01  6.2989551518603470e-01  6.7169715704951116e-01  6.6947293591023027e-01  6.6120384268384436e-01  6.5508321158163929e-01  6.5727291092281415e-01  6.3058664461352842e-01  6.7631785212716566e-01  6.7064577708264306e-01  6.6020581214870244e-01  6.5544515775458867e-01  6.3640960293233051e-01  6.3472292282687370e-01  6.7488854415304100e-01  6.6631924318378355e-01  6.6017324141517109e-01  6.5139278179096460e-01  6.3576367884255958e-01  6.2180692048179675e-01  6.7368651111656896e-01  6.6759379540161257e-01  6.5858431261575345e-01  6.5403797263233576e-01  6.5927276646810662e-01  6.3994866126814343e-01  6.7607724088613819e-01  6.6593501106460185e-01  6.6098208245867707e-01  6.5358010734478256e-01  6.5152199793837373e-01  6.4700915325998043e-01  6.7181555760126921e-01  6.6870662615363452e-01  6.6041126345226653e-01  6.5659148422785985e-01  6.6160241956287968e-01  6.2848322186646099e-01  6.7436828869675947e-01  6.6623951024560024e-01  6.6357234905785334e-01  6.5404598119508439e-01  6.5741418672891272e-01  6.2876455537839426e-01  6.7729958421078784e-01  6.7111255458460961e-01  6.6084518479248466e-01  6.5836404251515634e-01  6.5504208826748433e-01  6.3767234257401506e-01  6.7411132557376585e-01  6.6387327284180553e-01  6.6280934050350993e-01  6.5779250165701575e-01  6.3871256631348283e-01  6.2392855035419281e-01  6.7567827557053861e-01  6.6902632692037256e-01  6.6086224411822103e-01  6.5793265842390858e-01  6.5808310672416637e-01  6.2756586471105269e-01  6.7863140359299867e-01  6.6887091736331628e-01  6.5596686516281266e-01  6.5328835834383714e-01  6.5142296477824757e-01  6.3115349513149255e-01  6.7507801639397624e-01  6.7048346773790335e-01  6.5579035320557966e-01  6.5382055528818084e-01  6.6302019330164597e-01  6.3210275879449518e-01  6.7634718120806947e-01  6.7226466647351468e-01  6.6021688387261279e-01  6.5538383067574413e-01  6.5324545419754165e-01  6.2586909652134437e-01  6.7888105923426101e-01  6.6997128111025805e-01  6.5996718229603402e-01  6.5429430647512632e-01  6.5998832706627453e-01  6.3069349173275746e-01  6.7480839506366097e-01  6.6666460937460248e-01  6.6019186778081929e-01  6.5721435577325016e-01  6.5405074107676586e-01  6.4381998680948227e-01  6.7114358321339418e-01  6.7224238151534321e-01  6.5932426129406951e-01  6.5994521428147468e-01  6.5511697089321175e-01  6.3023228072719917e-01  6.7648661974969437e-01  6.6510981835003880e-01  6.6123576702646714e-01  6.5703076665008675e-01  6.6119364213711473e-01  6.3771757262033635e-01  6.7464561213366214e-01  6.6892188769055916e-01  6.5779067472146846e-01  6.5291757923425442e-01  6.5279334499227681e-01  6.2722109075937049e-01  6.7449526996995612e-01  6.6722206875675449e-01  6.5868808939272194e-01  6.5294058718380255e-01  6.4634490198334671e-01  6.2511186888881387e-01  6.7660888116044016e-01  6.7092075632284043e-01  6.5880727586714827e-01  6.5857991838980479e-01  6.5653194355480460e-01  6.3145677935914779e-01  6.7755406046733302e-01  6.6185794261052011e-01  6.5871886069119723e-01  6.5773022365575906e-01  6.5936601062722888e-01  6.2581646346164210e-01  6.7292452567877947e-01  6.7381858077704204e-01  6.5946227649401545e-01  6.5609989768745947e-01  6.5227737440856481e-01  6.2756023845976294e-01  6.7828545564243592e-01  6.7477526041519698e-01  6.5749497342077712e-01  6.6228154839477216e-01  6.5652998109642791e-01  6.3472581396543315e-01  6.7277181884727233e-01  6.6536855893145752e-01  6.5937786140707189e-01  6.5323303247426312e-01  6.4198939264959121e-01  6.2932501439515376e-01  6.7914048892672041e-01  6.7172634479376525e-01  6.5888990467858810e-01  6.5880038571368149e-01  6.6317830633645436e-01  6.2802686841515865e-01  6.7291202506892533e-01  6.6770950635113124e-01  6.6248345904690420e-01  6.5880707721437404e-01  6.5048334161826182e-01  6.3140366787929314e-01  6.7790061647768762e-01  6.7247858313245656e-01  6.6572482061590355e-01  6.5938843321281237e-01  6.5590874558520917e-01  6.2125260184851994e-01  6.7540137386275756e-01  6.7001450310270738e-01  6.6148362769705016e-01  6.5717757338078753e-01  6.5211281481698891e-01  6.2669475471180347e-01  6.7319095400084306e-01  6.6755380883692195e-01  6.5792602160692970e-01  6.5495815411163250e-01  6.5570169164187908e-01  6.3492570226436185e-01  6.7713141491225526e-01  6.6853373626648949e-01  6.6196569435909203e-01  6.5978723131813621e-01  6.5432075884192342e-01  6.2648509886319048e-01  6.7841677032708947e-01  6.7176602872231661e-01  6.5936617292437882e-01  6.5493109098260305e-01  6.5205418919133362e-01  6.2769623050404855e-01  6.7413330646376646e-01  6.6896145714592947e-01  6.6083807656109916e-01  6.5540391886539395e-01  6.5687901723984898e-01  6.3188595872785114e-01  6.7944240123299005e-01  6.7023014653819180e-01  6.5876448856354530e-01  6.5812615033668820e-01  6.5021516665809687e-01  6.3675002054161944e-01  6.7414569788286749e-01  6.6855748334154363e-01  6.5950514851447450e-01  6.5979110076290570e-01  6.5362613080746390e-01  6.2767901112001456e-01  6.7671494785290809e-01  6.6577515408292454e-01  6.6458992069981104e-01  6.5721952816032658e-01  6.5281315033024656e-01  6.2723544699999412e-01  6.7860164493920638e-01  6.6956499232551703e-01  6.6258296830009644e-01  6.5830487456269704e-01  6.5436008515221356e-01  6.3413375745871425e-01  6.7287394035167236e-01  6.6335161632049755e-01  6.5988406658568455e-01  6.5562769373512964e-01  6.4559696918406562e-01  6.2515409893656526e-01  6.7687095423717358e-01  6.6909374174489589e-01  6.6193025483951484e-01  6.5984522223675113e-01  6.5982928676903618e-01  6.2550013549149608e-01  6.7624965136053494e-01  6.6429703607684298e-01  6.5660183238754222e-01  6.5442860060378161e-01  6.4713017055680688e-01  6.3577564142488796e-01  6.7463354470065007e-01  6.7276145562999368e-01  6.6133057807290718e-01  6.5431774743427706e-01  6.5329818826125718e-01  6.2810356650583488e-01  6.7537174020127033e-01  6.7181389990041507e-01  6.5950490251908012e-01  6.5803918108028114e-01  6.4713649376675531e-01  6.2743460431338938e-01  6.7635313465852764e-01  6.6725439299259992e-01  6.5944544649086878e-01  6.5710384928349530e-01  6.5531776158643829e-01  6.3836466639782996e-01  6.7773451166638343e-01  6.7219438293239331e-01  6.5841531143187026e-01  6.5341830892468289e-01  6.5350212234454619e-01  6.2346958308981637e-01  6.7437905207232529e-01  6.7008681618699484e-01  6.5688610079121779e-01  6.5667808235099900e-01  6.6144373611715157e-01  6.2887665856928898e-01  6.7640388644446003e-01  6.6660643005899423e-01  6.5766306212836223e-01  6.5718091570640313e-01  6.5462245613501635e-01  6.2886520146017300e-01  6.7610699972126931e-01  6.6902237677276122e-01  6.5948036925147402e-01  6.5678154728900850e-01  6.5139595212546308e-01  6.2714108844525929e-01  6.7558046311085185e-01  6.7221517842600953e-01  6.5996250532714851e-01  6.5798486014896285e-01  6.5684317995830699e-01  6.2788070495579285e-01  6.7538626660293832e-01  6.6590077711300477e-01  6.6228063462522579e-01  6.5704593509921294e-01  6.5262599636531693e-01  6.2710376643969845e-01  6.7648235493369124e-01  6.6906128511748175e-01  6.6106063133067572e-01  6.5560844382384642e-01  6.5028136197033015e-01  6.2458503657182229e-01  6.7872771624804418e-01  6.6844446912888611e-01  6.5811561948523389e-01  6.5469720939480125e-01  6.6147068373588069e-01  6.3196158301876759e-01  6.7342995408347950e-01  6.6735200474485490e-01  6.6082326639830613e-01  6.5549481995315240e-01  6.4135183017044228e-01  6.2504110066930874e-01  6.7939287164183282e-01  6.7194730916183465e-01  6.6079716637828545e-01  6.5378615727781997e-01  6.6043686227302412e-01  6.3411269578383689e-01  6.7216784855542788e-01  6.6811454704048634e-01  6.6247680188994529e-01  6.5297621949579743e-01  6.4329226602248724e-01  6.2432548463252635e-01  6.7853000661960550e-01  6.7112426093625976e-01  6.6227337793616214e-01  6.5488594575474413e-01  6.4598006393632335e-01  6.2529984631989655e-01  6.7400021812708100e-01  6.6136601332038880e-01  6.6482806405908756e-01  6.5235161068922631e-01  6.5014182341484805e-01  6.3389184468904303e-01  6.7373851092617920e-01  6.71983