<?xml version="1.0"?>
<VTKFile type="UnstructuredGrid"  version="0.1"  >
<UnstructuredGrid>
<Piece  NumberOfPoints="3069" NumberOfCells="12882">
<Points>
<DataArray  type="Float64"  NumberOfComponents="3"  format="ascii">0 0 0  0 0 4  0 5.65685415 0  50 0 4  50 5.65685415 0  50 0 0  0 0 1  0 0 2  0 0 3  0 1.04967844 3.90746784  0 2.0669806 3.632725  0 3.02052855 3.18424606  0 3.88091111 2.5758636  0 4.62159061 1.82634306  0 5.21972132 0.958802283  0 4.71404505 0  0 3.77123618 0  0 2.82842708 0  0 1.88561809 0  0 0.942809045 0  0.5 0 4  1 0 4  1.5 0 4  2 0 4  2.5 0 4  3 0 4  3.5 0 4  4 0 4  4.5 0 4  5 0 4  5.5 0 4  6 0 4  6.5 0 4  7 0 4  7.5 0 4  8 0 4  8.5 0 4  9 0 4  9.5 0 4  10 0 4  10.5 0 4  11 0 4  11.5 0 4  12 0 4  12.5 0 4  13 0 4  13.5 0 4  14 0 4  14.5 0 4  15 0 4  15.5 0 4  16 0 4  16.5 0 4  17 0 4  17.5 0 4  18 0 4  18.5 0 4  19 0 4  19.5 0 4  20 0 4  20.5 0 4  21 0 4  21.5 0 4  22 0 4  22.5 0 4  23 0 4  23.5 0 4  24 0 4  24.5 0 4  25 0 4  25.5 0 4  26 0 4  26.5 0 4  27 0 4  27.5 0 4  28 0 4  28.5 0 4  29 0 4  29.5 0 4  30 0 4  30.5 0 4  31 0 4  31.5 0 4  32 0 4  32.5 0 4  33 0 4  33.5 0 4  34 0 4  34.5 0 4  35 0 4  35.5 0 4  36 0 4  36.5 0 4  37 0 4  37.5 0 4  38 0 4  38.5 0 4  39 0 4  39.5 0 4  40 0 4  40.5 0 4  41 0 4  41.5 0 4  42 0 4  42.5 0 4  43 0 4  43.5 0 4  44 0 4  44.5 0 4  45 0 4  45.5 0 4  46 0 4  46.5 0 4  47 0 4  47.5 0 4  48 0 4  48.5 0 4  49 0 4  49.5 0 4  50 1.04967844 3.90746784  50 2.0669806 3.632725  50 3.02052855 3.18424606  50 3.88091111 2.5758636  50 4.62159061 1.82634306  50 5.21972132 0.958802283  49.5 5.65685415 0  49 5.65685415 0  48.5 5.65685415 0  48 5.65685415 0  47.5 5.65685415 0  47 5.65685415 0  46.5 5.65685415 0  46 5.65685415 0  45.5 5.65685415 0  45 5.65685415 0  44.5 5.65685415 0  44 5.65685415 0  43.5 5.65685415 0  43 5.65685415 0  42.5 5.65685415 0  42 5.65685415 0  41.5 5.65685415 0  41 5.65685415 0  40.5 5.65685415 0  40 5.65685415 0  39.5 5.65685415 0  39 5.65685415 0  38.5 5.65685415 0  38 5.65685415 0  37.5 5.65685415 0  37 5.65685415 0  36.5 5.65685415 0  36 5.65685415 0  35.5 5.65685415 0  35 5.65685415 0  34.5 5.65685415 0  34 5.65685415 0  33.5 5.65685415 0  33 5.65685415 0  32.5 5.65685415 0  32 5.65685415 0  31.5 5.65685415 0  31 5.65685415 0  30.5 5.65685415 0  30 5.65685415 0  29.5 5.65685415 0  29 5.65685415 0  28.5 5.65685415 0  28 5.65685415 0  27.5 5.65685415 0  27 5.65685415 0  26.5 5.65685415 0  26 5.65685415 0  25.5 5.65685415 0  25 5.65685415 0  24.5 5.65685415 0  24 5.65685415 0  23.5 5.65685415 0  23 5.65685415 0  22.5 5.65685415 0  22 5.65685415 0  21.5 5.65685415 0  21 5.65685415 0  20.5 5.65685415 0  20 5.65685415 0  19.5 5.65685415 0  19 5.65685415 0  18.5 5.65685415 0  18 5.65685415 0  17.5 5.65685415 0  17 5.65685415 0  16.5 5.65685415 0  16 5.65685415 0  15.5 5.65685415 0  15 5.65685415 0  14.5 5.65685415 0  14 5.65685415 0  13.5 5.65685415 0  13 5.65685415 0  12.5 5.65685415 0  12 5.65685415 0  11.5 5.65685415 0  11 5.65685415 0  10.5 5.65685415 0  10 5.65685415 0  9.5 5.65685415 0  9 5.65685415 0  8.5 5.65685415 0  8 5.65685415 0  7.5 5.65685415 0  7 5.65685415 0  6.5 5.65685415 0  6 5.65685415 0  5.5 5.65685415 0  5 5.65685415 0  4.5 5.65685415 0  4 5.65685415 0  3.5 5.65685415 0  3 5.65685415 0  2.5 5.65685415 0  2 5.65685415 0  1.5 5.65685415 0  1 5.65685415 0  0.5 5.65685415 0  50 4.71404505 0  50 3.77123618 0  50 2.82842708 0  50 1.88561809 0  50 0.942809045 0  49.5 0 0  49 0 0  48.5 0 0  48 0 0  47.5 0 0  47 0 0  46.5 0 0  46 0 0  45.5 0 0  45 0 0  44.5 0 0  44 0 0  43.5 0 0  43 0 0  42.5 0 0  42 0 0  41.5 0 0  41 0 0  40.5 0 0  40 0 0  39.5 0 0  39 0 0  38.5 0 0  38 0 0  37.5 0 0  37 0 0  36.5 0 0  36 0 0  35.5 0 0  35 0 0  34.5 0 0  34 0 0  33.5 0 0  33 0 0  32.5 0 0  32 0 0  31.5 0 0  31 0 0  30.5 0 0  30 0 0  29.5 0 0  29 0 0  28.5 0 0  28 0 0  27.5 0 0  27 0 0  26.5 0 0  26 0 0  25.5 0 0  25 0 0  24.5 0 0  24 0 0  23.5 0 0  23 0 0  22.5 0 0  22 0 0  21.5 0 0  21 0 0  20.5 0 0  20 0 0  19.5 0 0  19 0 0  18.5 0 0  18 0 0  17.5 0 0  17 0 0  16.5 0 0  16 0 0  15.5 0 0  15 0 0  14.5 0 0  14 0 0  13.5 0 0  13 0 0  12.5 0 0  12 0 0  11.5 0 0  11 0 0  10.5 0 0  10 0 0  9.5 0 0  9 0 0  8.5 0 0  8 0 0  7.5 0 0  7 0 0  6.5 0 0  6 0 0  5.5 0 0  5 0 0  4.5 0 0  4 0 0  3.5 0 0  3 0 0  2.5 0 0  2 0 0  1.5 0 0  1 0 0  0.5 0 0  50 0 1  50 0 2  50 0 3  0 2.33524275 0.893602192  0 2.87561393 1.93323028  0 4.2367816 0.876864135  0 2.00050235 2.65534091  0 0.981494486 2.34323239  0 3.78543234 1.61830366  0 3.30545568 0.887000024  0 0.812916458 1.58408713  0 1.71948838 1.71268857  0 1.28267908 0.8650629520000001  0 1.21973121 3.10775328  0.5 5.21972132 0.958802223  0.5 4.62159061 1.82634306  0.5 3.88091111 2.5758636  0.5 3.02052855 3.18424606  0.5 2.0669806 3.632725  0.5 1.04967844 3.90746784  1 5.21972132 0.958802223  1 4.62159061 1.82634306  1 3.88091111 2.5758636  1 3.02052855 3.18424606  1 2.0669806 3.632725  1 1.04967844 3.90746784  1.5 5.21972132 0.958802223  1.5 4.62159061 1.82634306  1.5 3.88091111 2.5758636  1.5 3.02052855 3.18424606  1.5 2.0669806 3.632725  1.5 1.04967844 3.90746784  2 5.21972132 0.958802223  2 4.62159061 1.82634306  2 3.88091111 2.5758636  2 3.02052855 3.18424606  2 2.0669806 3.632725  2 1.04967844 3.90746784  2.5 5.21972132 0.958802223  2.5 4.62159061 1.82634306  2.5 3.88091111 2.5758636  2.5 3.02052855 3.18424606  2.5 2.0669806 3.632725  2.5 1.04967844 3.90746784  3 5.21972132 0.958802223  3 4.62159061 1.82634306  3 3.88091111 2.5758636  3 3.02052855 3.18424606  3 2.0669806 3.632725  3 1.04967844 3.90746784  3.5 5.21972132 0.958802223  3.5 4.62159061 1.82634306  3.5 3.88091111 2.5758636  3.5 3.02052855 3.18424606  3.5 2.0669806 3.632725  3.5 1.04967844 3.90746784  4 5.21972132 0.958802223  4 4.62159061 1.82634306  4 3.88091111 2.5758636  4 3.02052855 3.18424606  4 2.0669806 3.632725  4 1.04967844 3.90746784  4.5 5.21972132 0.958802223  4.5 4.62159061 1.82634306  4.5 3.88091111 2.5758636  4.5 3.02052855 3.18424606  4.5 2.0669806 3.632725  4.5 1.04967844 3.90746784  5 5.21972132 0.958802223  5 4.62159061 1.82634306  5 3.88091111 2.5758636  5 3.02052855 3.18424606  5 2.0669806 3.632725  5 1.04967844 3.90746784  5.5 5.21972132 0.958802223  5.5 4.62159061 1.82634306  5.5 3.88091111 2.5758636  5.5 3.02052855 3.18424606  5.5 2.0669806 3.632725  5.5 1.04967844 3.90746784  6 5.21972132 0.958802223  6 4.62159061 1.82634306  6 3.88091111 2.5758636  6 3.02052855 3.18424606  6 2.0669806 3.632725  6 1.04967844 3.90746784  6.5 5.21972132 0.958802223  6.5 4.62159061 1.82634306  6.5 3.88091111 2.5758636  6.5 3.02052855 3.18424606  6.5 2.0669806 3.632725  6.5 1.04967844 3.90746784  7 5.21972132 0.958802223  7 4.62159061 1.82634306  7 3.88091111 2.5758636  7 3.02052855 3.18424606  7 2.0669806 3.632725  7 1.04967844 3.90746784  7.5 5.21972132 0.958802223  7.5 4.62159061 1.82634306  7.5 3.88091111 2.5758636  7.5 3.02052855 3.18424606  7.5 2.0669806 3.632725  7.5 1.04967844 3.90746784  8 5.21972132 0.958802223  8 4.62159061 1.82634306  8 3.88091111 2.5758636  8 3.02052855 3.18424606  8 2.0669806 3.632725  8 1.04967844 3.90746784  8.5 5.21972132 0.958802223  8.5 4.62159061 1.82634306  8.5 3.88091111 2.5758636  8.5 3.02052855 3.18424606  8.5 2.0669806 3.632725  8.5 1.04967844 3.90746784  9 5.21972132 0.958802223  9 4.62159061 1.82634306  9 3.88091111 2.5758636  9 3.02052855 3.18424606  9 2.0669806 3.632725  9 1.04967844 3.90746784  9.5 5.21972132 0.958802223  9.5 4.62159061 1.82634306  9.5 3.88091111 2.5758636  9.5 3.02052855 3.18424606  9.5 2.0669806 3.632725  9.5 1.04967844 3.90746784  10 5.21972132 0.958802223  10 4.62159061 1.82634306  10 3.88091111 2.5758636  10 3.02052855 3.18424606  10 2.0669806 3.632725  10 1.04967844 3.90746784  10.5 5.21972132 0.958802223  10.5 4.62159061 1.82634306  10.5 3.88091111 2.5758636  10.5 3.02052855 3.18424606  10.5 2.0669806 3.632725  10.5 1.04967844 3.90746784  11 5.21972132 0.958802223  11 4.62159061 1.82634306  11 3.88091111 2.5758636  11 3.02052855 3.18424606  11 2.0669806 3.632725  11 1.04967844 3.90746784  11.5 5.21972132 0.958802223  11.5 4.62159061 1.82634306  11.5 3.88091111 2.5758636  11.5 3.02052855 3.18424606  11.5 2.0669806 3.632725  11.5 1.04967844 3.90746784  12 5.21972132 0.958802223  12 4.62159061 1.82634306  12 3.88091111 2.5758636  12 3.02052855 3.18424606  12 2.0669806 3.632725  12 1.04967844 3.90746784  12.5 5.21972132 0.958802223  12.5 4.62159061 1.82634306  12.5 3.88091111 2.5758636  12.5 3.02052855 3.18424606  12.5 2.0669806 3.632725  12.5 1.04967844 3.90746784  13 5.21972132 0.958802223  13 4.62159061 1.82634306  13 3.88091111 2.5758636  13 3.02052855 3.18424606  13 2.0669806 3.632725  13 1.04967844 3.90746784  13.5 5.21972132 0.958802223  13.5 4.62159061 1.82634306  13.5 3.88091111 2.5758636  13.5 3.02052855 3.18424606  13.5 2.0669806 3.632725  13.5 1.04967844 3.90746784  14 5.21972132 0.958802223  14 4.62159061 1.82634306  14 3.88091111 2.5758636  14 3.02052855 3.18424606  14 2.0669806 3.632725  14 1.04967844 3.90746784  14.5 5.21972132 0.958802223  14.5 4.62159061 1.82634306  14.5 3.88091111 2.5758636  14.5 3.02052855 3.18424606  14.5 2.0669806 3.632725  14.5 1.04967844 3.90746784  15 5.21972132 0.958802223  15 4.62159061 1.82634306  15 3.88091111 2.5758636  15 3.02052855 3.18424606  15 2.0669806 3.632725  15 1.04967844 3.90746784  15.5 5.21972132 0.958802223  15.5 4.62159061 1.82634306  15.5 3.88091111 2.5758636  15.5 3.02052855 3.18424606  15.5 2.0669806 3.632725  15.5 1.04967844 3.90746784  16 5.21972132 0.958802223  16 4.62159061 1.82634306  16 3.88091111 2.5758636  16 3.02052855 3.18424606  16 2.0669806 3.632725  16 1.04967844 3.90746784  16.5 5.21972132 0.958802223  16.5 4.62159061 1.82634306  16.5 3.88091111 2.5758636  16.5 3.02052855 3.18424606  16.5 2.0669806 3.632725  16.5 1.04967844 3.90746784  17 5.21972132 0.958802223  17 4.62159061 1.82634306  17 3.88091111 2.5758636  17 3.02052855 3.18424606  17 2.0669806 3.632725  17 1.04967844 3.90746784  17.5 5.21972132 0.958802223  17.5 4.62159061 1.82634306  17.5 3.88091111 2.5758636  17.5 3.02052855 3.18424606  17.
[...]
<PointData  Scalars="f_261141-5"> 
<DataArray  type="Float64"  Name="f_261141-5"  format="ascii">-2.0551331546011764e-01  -2.0706701517002479e-01  -2.0551331546011764e-01  -2.7772298171121346e-01  -2.0551331546011764e-01  -2.0551331546011764e-01  -2.0486898920944477e-01  -2.0453472031302267e-01  -2.0622495271457353e-01  -2.0590608819664663e-01  -2.0532675716632015e-01  -2.0499365497945868e-01  -2.0475320020583962e-01  -2.0483312219750527e-01  -2.0523460725042225e-01  -2.0551331546011764e-01  -2.0551331546011764e-01  -2.0551331546011764e-01  -2.0551331546011764e-01  -2.0551331546011764e-01  -2.0706992504986779e-01  -2.0710287003855460e-01  -2.0705760584871660e-01  -2.0702059056894490e-01  -2.0698136166924894e-01  -2.0698178828598215e-01  -2.0694177991972529e-01  -2.0694443176716598e-01  -2.0689135764248637e-01  -2.0688353200450410e-01  -2.0679751160381846e-01  -2.0680029087942109e-01  -2.0678344206457605e-01  -2.0676239025888343e-01  -2.0679203478518313e-01  -2.0683930485316621e-01  -2.0687396225800217e-01  -2.0686099838868716e-01  -2.0679069148711224e-01  -2.0676046082733490e-01  -2.0670047760769247e-01  -2.0667386791874578e-01  -2.0665086494067869e-01  -2.0669499455665979e-01  -2.0668299936072035e-01  -2.0670067970219919e-01  -2.0664655042754529e-01  -2.0658291844118851e-01  -2.0662391886642742e-01  -2.0661831150710336e-01  -2.0666498045524134e-01  -2.0671809392826401e-01  -2.0676050321630202e-01  -2.0682115134021964e-01  -2.0685867119116055e-01  -2.0685890208697089e-01  -2.0686620501566380e-01  -2.0683246967027052e-01  -2.0682888661320081e-01  -2.0683181477718737e-01  -2.0682049325408805e-01  -2.0683474804250615e-01  -2.0680125416184203e-01  -2.0679014561210604e-01  -2.0678872516877400e-01  -2.0677394797436857e-01  -2.0674458487558586e-01  -2.0673168583641474e-01  -2.0674096108154705e-01  -2.0676391669735880e-01  -2.0677180694514324e-01  -2.0678474929876894e-01  -2.0682516606339577e-01  -2.0680414605712130e-01  -2.0682301099016609e-01  -2.0682804753898906e-01  -2.0681710672705930e-01  -2.0679542641407878e-01  -2.0679084741807469e-01  -2.0681789116465898e-01  -2.0683341038864403e-01  -2.0683517184814040e-01  -2.0684476976796409e-01  -2.0681260152665240e-01  -2.0676621289515704e-01  -2.0677184544265595e-01  -2.0678107329052128e-01  -2.0680289321658865e-01  -2.0687422793246207e-01  -2.0688538761419134e-01  -2.0687302159479407e-01  -2.0689921481015933e-01  -2.0685763202878044e-01  -2.0685450744656017e-01  -2.0686203118266858e-01  -2.0684385314580706e-01  -2.0686060865541772e-01  -2.0684482010962513e-01  -2.0685498589309381e-01  -2.0685467349059575e-01  -2.0686609730741543e-01  -2.0691129767082733e-01  -2.0695888507556104e-01  -2.0701488987178707e-01  -2.0716786844165011e-01  -2.0738875592748068e-01  -2.0776762878815491e-01  -2.0831480954107323e-01  -2.0922152011666403e-01  -2.1072783865504494e-01  -2.1266467575830730e-01  -2.1566201770779517e-01  -2.1968902045849825e-01  -2.2690948653588019e-01  -2.3785033136653400e-01  -2.5024022321757533e-01  -2.6174097523725665e-01  -2.7052170005988918e-01  -2.7622908148509528e-01  -2.7400916439536499e-01  -2.6401739745690084e-01  -2.5017866463796012e-01  -2.3444343276860644e-01  -2.2056048223720173e-01  -2.1117795815314552e-01  -2.0551331546011764e-01  -2.0551331546011764e-01  -2.0551331546011764e-01  -2.0551331546011764e-01  -2.0551331546011764e-01  -2.0551331546011764e-01  -2.0551331546011764e-01  -2.0551331546011764e-01  -2.0551331546011764e-01  -2.0551331546011764e-01  -2.0551331546011764e-01  -2.0551331546011764e-01  -2.0551331546011764e-01  -2.0551331546011764e-01  -2.0551331546011764e-01  -2.0551331546011764e-01  -2.0551331546011764e-01  -2.0551331546011764e-01  -2.0551331546011764e-01  -2.0551331546011764e-01  -2.0551331546011764e-01  -2.0551331546011764e-01  -2.0551331546011764e-01  -2.0551331546011764e-01  -2.0551331546011764e-01  -2.0551331546011764e-01  -2.0551331546011764e-01  -2.0551331546011764e-01  -2.0551331546011764e-01  -2.0551331546011764e-01  -2.0551331546011764e-01  -2.0551331546011764e-01  -2.0551331546011764e-01  -2.0551331546011764e-01  -2.0551331546011764e-01  -2.0551331546011764e-01  -2.0551331546011764e-01  -2.0551331546011764e-01  -2.0551331546011764e-01  -2.0551331546011764e-01  -2.0551331546011764e-01  -2.0551331546011764e-01  -2.0551331546011764e-01  -2.0551331546011764e-01  -2.0551331546011764e-01  -2.0551331546011764e-01  -2.0551331546011764e-01  -2.0551331546011764e-01  -2.0551331546011764e-01  -2.0551331546011764e-01  -2.0551331546011764e-01  -2.0551331546011764e-01  -2.0551331546011764e-01  -2.0551331546011764e-01  -2.0551331546011764e-01  -2.0551331546011764e-01  -2.0551331546011764e-01  -2.0551331546011764e-01  -2.0551331546011764e-01  -2.0551331546011764e-01  -2.0551331546011764e-01  -2.0551331546011764e-01  -2.0551331546011764e-01  -2.0551331546011764e-01  -2.0551331546011764e-01  -2.0551331546011764e-01  -2.0551331546011764e-01  -2.0551331546011764e-01  -2.0551331546011764e-01  -2.0551331546011764e-01  -2.0551331546011764e-01  -2.0551331546011764e-01  -2.0551331546011764e-01  -2.0551331546011764e-01  -2.0551331546011764e-01  -2.0551331546011764e-01  -2.0551331546011764e-01  -2.0551331546011764e-01  -2.0551331546011764e-01  -2.0551331546011764e-01  -2.0551331546011764e-01  -2.0551331546011764e-01  -2.0551331546011764e-01  -2.0551331546011764e-01  -2.0551331546011764e-01  -2.0551331546011764e-01  -2.0551331546011764e-01  -2.0551331546011764e-01  -2.0551331546011764e-01  -2.0551331546011764e-01  -2.0551331546011764e-01  -2.0551331546011764e-01  -2.0551331546011764e-01  -2.0551331546011764e-01  -2.0551331546011764e-01  -2.0551331546011764e-01  -2.0551331546011764e-01  -2.0551331546011764e-01  -2.0551331546011764e-01  -2.0551331546011764e-01  -2.0551331546011764e-01  -2.0551331546011764e-01  -2.0551331546011764e-01  -2.0551331546011764e-01  -2.0551331546011764e-01  -2.0551331546011764e-01  -2.0551331546011764e-01  -2.0551331546011764e-01  -2.0551331546011764e-01  -2.0551331546011764e-01  -2.0551331546011764e-01  -2.0551331546011764e-01  -2.0551331546011764e-01  -2.0551331546011764e-01  -2.0551331546011764e-01  -2.0551331546011764e-01  -2.0551331546011764e-01  -2.0551331546011764e-01  -2.0551331546011764e-01  -2.0551331546011764e-01  -2.0551331546011764e-01  -2.0551331546011764e-01  -2.0551331546011764e-01  -2.0551331546011764e-01  -2.0551331546011764e-01  -2.0551331546011764e-01  -2.0551331546011764e-01  -2.0551331546011764e-01  -2.0551331546011764e-01  -2.0551331546011764e-01  -2.0551331546011764e-01  -2.0551331546011764e-01  -2.0551331546011764e-01  -2.0551331546011764e-01  -2.0551331546011764e-01  -2.0551331546011764e-01  -2.0551331546011764e-01  -2.0551331546011764e-01  -2.0551331546011764e-01  -2.0551331546011764e-01  -2.0551331546011764e-01  -2.0551331546011764e-01  -2.0551331546011764e-01  -2.0551331546011764e-01  -2.0551331546011764e-01  -2.0551331546011764e-01  -2.0551331546011764e-01  -2.0551331546011764e-01  -2.0551331546011764e-01  -2.0551331546011764e-01  -2.0551331546011764e-01  -2.0551331546011764e-01  -2.0551331546011764e-01  -2.0551331546011764e-01  -2.0551331546011764e-01  -2.0551331546011764e-01  -2.0551331546011764e-01  -2.0551331546011764e-01  -2.0551331546011764e-01  -2.0551331546011764e-01  -2.0551331546011764e-01  -2.0551331546011764e-01  -2.0551331546011764e-01  -2.0551331546011764e-01  -2.0551331546011764e-01  -2.0551331546011764e-01  -2.0551331546011764e-01  -2.0551331546011764e-01  -2.0551331546011764e-01  -2.0551331546011764e-01  -2.0551331546011764e-01  -2.0551331546011764e-01  -2.0551331546011764e-01  -2.0551331546011764e-01  -2.0551331546011764e-01  -2.0551331546011764e-01  -2.0551331546011764e-01  -2.0551331546011764e-01  -2.0551331546011764e-01  -2.0551331546011764e-01  -2.0551331546011764e-01  -2.0551331546011764e-01  -2.0551331546011764e-01  -2.0551331546011764e-01  -2.0551331546011764e-01  -2.0551331546011764e-01  -2.0551331546011764e-01  -2.0551331546011764e-01  -2.0551331546011764e-01  -2.0551331546011764e-01  -2.0551331546011764e-01  -2.0551331546011764e-01  -2.0551331546011764e-01  -2.0551331546011764e-01  -2.0551331546011764e-01  -2.0551331546011764e-01  -2.0551331546011764e-01  -2.0551331546011764e-01  -2.0551331546011764e-01  -2.0551331546011764e-01  -2.0551331546011764e-01  -2.0551331546011764e-01  -2.0551331546011764e-01  -2.3419798415801063e-01  -2.5755734105897249e-01  -2.7333776106137803e-01  -2.0253516977619337e-01  -2.0199935449144163e-01  -2.0423571607486821e-01  -2.0350477295114741e-01  -2.0423654769681138e-01  -2.0327117063790912e-01  -2.0297151527624527e-01  -2.0366687592107899e-01  -2.0188692348071682e-01  -2.0372119674824157e-01  -2.0517183864446717e-01  -2.0551331546011764e-01  -2.0551331546011764e-01  -2.0551331546011764e-01  -2.0551331546011764e-01  -2.0551331546011764e-01  -2.0551331546011764e-01  -2.0551331546011764e-01  -2.0551331546011764e-01  -2.0551331546011764e-01  -2.0551331546011764e-01  -2.0551331546011764e-01  -2.0551331546011764e-01  -2.0551331546011764e-01  -2.0551331546011764e-01  -2.0551331546011764e-01  -2.0551331546011764e-01  -2.0551331546011764e-01  -2.0551331546011764e-01  -2.0551331546011764e-01  -2.0551331546011764e-01  -2.0551331546011764e-01  -2.0551331546011764e-01  -2.0551331546011764e-01  -2.0551331546011764e-01  -2.0551331546011764e-01  -2.0551331546011764e-01  -2.0551331546011764e-01  -2.0551331546011764e-01  -2.0551331546011764e-01  -2.0551331546011764e-01  -2.0551331546011764e-01  -2.0551331546011764e-01  -2.0551331546011764e-01  -2.0551331546011764e-01  -2.0551331546011764e-01  -2.0551331546011764e-01  -2.0551331546011764e-01  -2.0551331546011764e-01  -2.0551331546011764e-01  -2.0551331546011764e-01  -2.0551331546011764e-01  -2.0551331546011764e-01  -2.0551331546011764e-01  -2.0551331546011764e-01  -2.0551331546011764e-01  -2.0551331546011764e-01  -2.0551331546011764e-01  -2.0551331546011764e-01  -2.0551331546011764e-01  -2.0551331546011764e-01  -2.0551331546011764e-01  -2.0551331546011764e-01  -2.0551331546011764e-01  -2.0551331546011764e-01  -2.0551331546011764e-01  -2.0551331546011764e-01  -2.0551331546011764e-01  -2.0551331546011764e-01  -2.0551331546011764e-01  -2.0551331546011764e-01  -2.0551331546011764e-01  -2.0551331546011764e-01  -2.0551331546011764e-01  -2.0551331546011764e-01  -2.0551331546011764e-01  -2.0551331546011764e-01  -2.0551331546011764e-01  -2.0551331546011764e-01  -2.0551331546011764e-01  -2.0551331546011764e-01  -2.0551331546011764e-01  -2.0551331546011764e-01  -2.0551331546011764e-01  -2.0551331546011764e-01  -2.0551331546011764e-01  -2.0551331546011764e-01  -2.0551331546011764e-01  -2.0551331546011764e-01  -2.0551331546011764e-01  -2.0551331546011764e-01  -2.0551331546011764e-01  -2.0551331546011764e-01  -2.0551331546011764e-01  -2.0551331546011764e-01  -2.0551331546011764e-01  -2.0551331546011764e-01  -2.0551331546011764e-01  -2.0551331546011764e-01  -2.0551331546011764e-01  -2.0551331546011764e-01  -2.0551331546011764e-01  -2.0551331546011764e-01  -2.0551331546011764e-01  -2.0551331546011764e-01  -2.0551331546011764e-01  -2.0551331546011764e-01  -2.0551331546011764e-01  -2.0551331546011764e-01  -2.0551331546011764e-01  -2.0551331546011764e-01  -2.0551331546011764e-01  -2.0551331546011764e-01  -2.0551331546011764e-01  -2.0551331546011764e-01  -2.0551331546011764e-01  -2.0551331546011764e-01  -2.0551331546011764e-01  -2.0551331546011764e-01  -2.0551331546011764e-01  -2.0551331546011764e-01  -2.0551331546011764e-01  -2.0551331546011764e-01  -2.0551331546011764e-01  -2.0551331546011764e-01  -2.0551331546011764e-01  -2.0551331546011764e-01  -2.0551331546011764e-01  -2.0551331546011764e-01  -2.0551331546011764e-01  -2.0551331546011764e-01  -2.0551331546011764e-01  -2.0551331546011764e-01  -2.0551331546011764e-01  -2.0551331546011764e-01  -2.0551331546011764e-01  -2.0551331546011764e-01  -2.0551331546011764e-01  -2.0551331546011764e-01  -2.0551331546011764e-01  -2.0551331546011764e-01  -2.0551331546011764e-01  -2.0551331546011764e-01  -2.0551331546011764e-01  -2.0551331546011764e-01  -2.0551331546011764e-01  -2.0551331546011764e-01  -2.0551331546011764e-01  -2.0551331546011764e-01  -2.0551331546011764e-01  -2.0551331546011764e-01  -2.0551331546011764e-01  -2.0551331546011764e-01  -2.0551331546011764e-01  -2.0551331546011764e-01  -2.0551331546011764e-01  -2.0551331546011764e-01  -2.0551331546011764e-01  -2.0551331546011764e-01  -2.0551331546011764e-01  -2.0551331546011764e-01  -2.0551331546011764e-01  -2.0551331546011764e-01  -2.0551331546011764e-01  -2.0551331546011764e-01  -2.0551331546011764e-01  -2.0551331546011764e-01  -2.0551331546011764e-01  -2.0551331546011764e-01  -2.0551331546011764e-01  -2.0551331546011764e-01  -2.0551331546011764e-01  -2.0551331546011764e-01  -2.0551331546011764e-01  -2.0551331546011764e-01  -2.0551331546011764e-01  -2.0551331546011764e-01  -2.0551331546011764e-01  -2.0551331546011764e-01  -2.0551331546011764e-01  -2.0551331546011764e-01  -2.0551331546011764e-01  -2.0551331546011764e-01  -2.0551331546011764e-01  -2.0551331546011764e-01  -2.0551331546011764e-01  -2.0551331546011764e-01  -2.0551331546011764e-01  -2.0551331546011764e-01  -2.0551331546011764e-01  -2.0551331546011764e-01  -2.0551331546011764e-01  -2.0551331546011764e-01  -2.0551331546011764e-01  -2.0551331546011764e-01  -2.0551331546011764e-01  -2.0551331546011764e-01  -2.0551331546011764e-01  -2.0551331546011764e-01  -2.0551331546011764e-01  -2.0551331546011764e-01  -2.0551331546011764e-01  -2.0551331546011764e-01  -2.0551331546011764e-01  -2.0551331546011764e-01  -2.0551331546011764e-01  -2.0551331546011764e-01  -2.0551331546011764e-01  -2.0551331546011764e-01  -2.0551331546011764e-01  -2.0551331546011764e-01  -2.0551331546011764e-01  -2.0551331546011764e-01  -2.0551331546011764e-01  -2.0551331546011764e-01  -2.0551331546011764e-01  -2.0551331546011764e-01  -2.0551331546011764e-01  -2.0551331546011764e-01  -2.0551331546011764e-01  -2.0551331546011764e-01  -2.0551331546011764e-01  -2.0551331546011764e-01  -2.0551331546011764e-01  -2.0551331546011764e-01  -2.0551331546011764e-01  -2.0551331546011764e-01  -2.0551331546011764e-01  -2.0551331546011764e-01  -2.0551331546011764e-01  -2.0551331546011764e-01  -2.0551331546011764e-01  -2.0551331546011764e-01  -2.0551331546011764e-01  -2.0551331546011764e-01  -2.0551331546011764e-01  -2.0551331546011764e-01  -2.0551331546011764e-01  -2.0551331546011764e-01  -2.0551331546011764e-01  -2.0551331546011764e-01  -2.0551331546011764e-01  -2.0551331546011764e-01  -2.0551331546011764e-01  -2.0551331546011764e-01  -2.0551331546011764e-01  -2.0551331546011764e-01  -2.0551331546011764e-01  -2.0551331546011764e-01  -2.0551331546011764e-01  -2.0551331546011764e-01  -2.0551331546011764e-01  -2.0551331546011764e-01  -2.0551331546011764e-01  -2.0551331546011764e-01  -2.0551331546011764e-01  -2.0551331546011764e-01  -2.0551331546011764e-01  -2.0551331546011764e-01  -2.0551331546011764e-01  -2.0551331546011764e-01  -2.0551331546011764e-01  -2.0551331546011764e-01  -2.0551331546011764e-01  -2.0551331546011764e-01  -2.0551331546011764e-01  -2.0551331546011764e-01  -2.0551331546011764e-01  -2.0551331546011764e-01  -2.0551331546011764e-01  -2.0551331546011764e-01  -2.0551331546011764e-01  -2.0551331546011764e-01  -2.0551331546011764e-01  -2.0551331546011764e-01  -2.0551331546011764e-01  -2.0551331546011764e-01  -2.0551331546011764e-01  -2.0551331546011764e-01  -2.0551331546011764e-01  -2.0551331546011764e-01  -2.0551331546011764e-01  -2.0551331546011764e-01  -2.0551331546011764e-01  -2.0551331546011764e-01  -2.0551331546011764e-01  -2.0551331546011764e-01  -2.0551331546011764e-01  -2.0551331546011764e-01  -2.0551331546011764e-01  -2.0551331546011764e-01  -2.0551331546011764e-01  -2.0551331546011764e-01  -2.0551331546011764e-01  -2.0551331546011764e-01  -2.0551331546011764e-01  -2.0551331546011764e-01  -2.0551331546011764e-01  -2.0551331546011764e-01  -2.0551331546011764e-01  -2.0551331546011764e-01  -2.0551331546011764e-01  -2.0551331546011764e-01  -2.0551331546011764e-01  -2.0551331546011764e-01  -2.0551331546011764e-01  -2.0551331546011764e-01  -2.0551331546011764e-01  -2.0551331546011764e-01  -2.0551331546011764e-01  -2.0551331546011764e-01  -2.0551331546011764e-01  -2.0551331546011764e-01  -2.0551331546011764e-01  -2.0551331546011764e-01  -2.0551331546011764e-01  -2.0551331546011764e-01  -2.0551331546011764e-01  -2.0551331546011764e-01  -2.0551331546011764e-01  -2.0551331546011764e-01  -2.0551331546011764e-01  -2.0551331546011764e-01  -2.0551331546011764e-01  -2.0551331546011764e-01  -2.0551331546011764e-01  -2.0551331546011764e-01  -2.0551331546011764e-01  -2.0551331546011764e-01  -2.0551331546011764e-01  -2.0551331546011764e-01  -2.0551331546011764e-01  -2.0551331546011764e-01  -2.0551331546011764e-01  -2.0551331546011764e-01  -2.0551331546011764e-01  -2.0551331546011764e-01  -2.0551331546011764e-01  -2.0551331546011764e-01  -2.0551331546011764e-01  -2.0551331546011764e-01  -2.0551331546011764e-01  -2.0551331546011764e-01  -2.0551331546011764e-01  -2.0551331546011764e-01  -2.0551331546011764e-01  -2.0551331546011764e-01  -2.0551331546011764e-01  -2.0551331546011764e-01  -2.0551331546011764e-01  -2.0551331546011764e-01  -2.0551331546011764e-01  -2.0551331546011764e-01  -2.0551331546011764e-01  -2.0551331546011764e-01  -2.0551331546011764e-01  -2.0551331546011764e-01  -2.0551331546011764e-01  -2.0551331546011764e-01  -2.0551331546011764e-01  -2.0551331546011764e-01  -2.0551331546011764e-01  -2.0551331546011764e-01  -2.0551331546011764e-01  -2.0551331546011764e-01  -2.0551331546011764e-01  -2.0551331546011764e-01  -2.0551331546011764e-01  -2.0551331546011764e-01  -2.0551331546011764e-01  -2.0551331546011764e-01  -2.0551331546011764e-01  -2.0551331546011764e-01  -2.0551331546011764e-01  -2.0551331546011764e-01  -2.0551331546011764e-01  -2.0551331546011764e-01  -2.0551331546011764e-01  -2.0551331546011764e-01  -2.0551331546011764e-01  -2.0551331546011764e-01  -2.0551331546011764e-01  -2.0551331546011764e-01  -2.0551331546011764e-01  -2.0551331546011764e-01  -2.0551331546011764e-01  -2.0551331546011764e-01  -2.0551331546011764e-01  -2.0551331546011764e-01  -2.0551331546011764e-01  -2.0551331546011764e-01  -2.0551331546011764e-01  -2.0551331546011764e-01  -2.0551331546011764e-01  -2.0551331546011764e-01  -2.0551331546011764e-01  -2.0551331546011764e-01  -2.0551331546011764e-01  -2.0551331546011764e-01  -2.0551331546011764e-01  -2.0551331546011764e-01  -2.0551331546011764e-01  -2.0551331546011764e-01  -2.0551331546011764e-01  -2.0551331546011764e-01  -2.0551331546011764e-01  -2.0551331546011764e-01  -2.0551331546011764e-01  -2.0551331546011764e-01  -2.0551331546011764e-01  -2.0551331546011764e-01  -2.0551331546011764e-01  -2.0551331546011764e-01  -2.0551331546011764e-01  -2.0551331546011764e-01  -2.0551331546011764e-01  -2.0551331546011764e-01  -2.0551331546011764e-01  -2.0551331546011764e-01  -2.0551331546011764e-01  -2.0551331546011764e-01  -2.0551331546011764e-01  -2.0551331546011764e-01  -2.0551331546011764e-01  -2.0551331546011764e-01  -2.0551331546011764e-01  -2.0551331546011764e-01  -2.0551331546011764e-01  -2.0551331546011764e-01  -2.0551331546011764e-01  -2.0551331546011764e-01  -2.0551331546011764e-01  -2.0551331546011764e-01  -2.0551331546011764e-01  -2.0551331546011764e-01  -2.0551331546011764e-01  -2.0551331546011764e-01  -2.0551331546011764e-01  -2.0551331546011764e-01  -2.0551331546011764e-01  -2.0551331546011764e-01  -2.0551331546011764e-01  -2.0551331546011764e-01  -2.0551331546011764e-01  -2.0551331546011764e-01  -2.0551331546011764e-01  -2.0551331546011764e-01  -2.0551331546011764e-01  -2.0551331546011764e-01  -2.0551331546011764e-01  -2.0551331546011764e-01  -2.0551331546011764e-01  -2.0551331546011764e-01  -2.0551331546011764e-01  -2.0551331546011764e-01  -2.0551331546011764e-01  -2.0551331546011764e-01  -2.0551331546011764e-01  -2.0551331546011764e-01  -2.0551331546011764e-01  -2.0551331546011764e-01  -2.0551331546011764e-01  -2.0551331546011764e-01  -2.0551331546011764e-01  -2.0551331546011764e-01  -2.