<?xml version="1.0"?>
<VTKFile type="UnstructuredGrid"  version="0.1"  >
<UnstructuredGrid>
<Piece  NumberOfPoints="3069" NumberOfCells="12882">
<Points>
<DataArray  type="Float64"  NumberOfComponents="3"  format="ascii">0 0 0  0 0 4  0 5.65685415 0  50 0 4  50 5.65685415 0  50 0 0  0 0 1  0 0 2  0 0 3  0 1.04967844 3.90746784  0 2.0669806 3.632725  0 3.02052855 3.18424606  0 3.88091111 2.5758636  0 4.62159061 1.82634306  0 5.21972132 0.958802283  0 4.71404505 0  0 3.77123618 0  0 2.82842708 0  0 1.88561809 0  0 0.942809045 0  0.5 0 4  1 0 4  1.5 0 4  2 0 4  2.5 0 4  3 0 4  3.5 0 4  4 0 4  4.5 0 4  5 0 4  5.5 0 4  6 0 4  6.5 0 4  7 0 4  7.5 0 4  8 0 4  8.5 0 4  9 0 4  9.5 0 4  10 0 4  10.5 0 4  11 0 4  11.5 0 4  12 0 4  12.5 0 4  13 0 4  13.5 0 4  14 0 4  14.5 0 4  15 0 4  15.5 0 4  16 0 4  16.5 0 4  17 0 4  17.5 0 4  18 0 4  18.5 0 4  19 0 4  19.5 0 4  20 0 4  20.5 0 4  21 0 4  21.5 0 4  22 0 4  22.5 0 4  23 0 4  23.5 0 4  24 0 4  24.5 0 4  25 0 4  25.5 0 4  26 0 4  26.5 0 4  27 0 4  27.5 0 4  28 0 4  28.5 0 4  29 0 4  29.5 0 4  30 0 4  30.5 0 4  31 0 4  31.5 0 4  32 0 4  32.5 0 4  33 0 4  33.5 0 4  34 0 4  34.5 0 4  35 0 4  35.5 0 4  36 0 4  36.5 0 4  37 0 4  37.5 0 4  38 0 4  38.5 0 4  39 0 4  39.5 0 4  40 0 4  40.5 0 4  41 0 4  41.5 0 4  42 0 4  42.5 0 4  43 0 4  43.5 0 4  44 0 4  44.5 0 4  45 0 4  45.5 0 4  46 0 4  46.5 0 4  47 0 4  47.5 0 4  48 0 4  48.5 0 4  49 0 4  49.5 0 4  50 1.04967844 3.90746784  50 2.0669806 3.632725  50 3.02052855 3.18424606  50 3.88091111 2.5758636  50 4.62159061 1.82634306  50 5.21972132 0.958802283  49.5 5.65685415 0  49 5.65685415 0  48.5 5.65685415 0  48 5.65685415 0  47.5 5.65685415 0  47 5.65685415 0  46.5 5.65685415 0  46 5.65685415 0  45.5 5.65685415 0  45 5.65685415 0  44.5 5.65685415 0  44 5.65685415 0  43.5 5.65685415 0  43 5.65685415 0  42.5 5.65685415 0  42 5.65685415 0  41.5 5.65685415 0  41 5.65685415 0  40.5 5.65685415 0  40 5.65685415 0  39.5 5.65685415 0  39 5.65685415 0  38.5 5.65685415 0  38 5.65685415 0  37.5 5.65685415 0  37 5.65685415 0  36.5 5.65685415 0  36 5.65685415 0  35.5 5.65685415 0  35 5.65685415 0  34.5 5.65685415 0  34 5.65685415 0  33.5 5.65685415 0  33 5.65685415 0  32.5 5.65685415 0  32 5.65685415 0  31.5 5.65685415 0  31 5.65685415 0  30.5 5.65685415 0  30 5.65685415 0  29.5 5.65685415 0  29 5.65685415 0  28.5 5.65685415 0  28 5.65685415 0  27.5 5.65685415 0  27 5.65685415 0  26.5 5.65685415 0  26 5.65685415 0  25.5 5.65685415 0  25 5.65685415 0  24.5 5.65685415 0  24 5.65685415 0  23.5 5.65685415 0  23 5.65685415 0  22.5 5.65685415 0  22 5.65685415 0  21.5 5.65685415 0  21 5.65685415 0  20.5 5.65685415 0  20 5.65685415 0  19.5 5.65685415 0  19 5.65685415 0  18.5 5.65685415 0  18 5.65685415 0  17.5 5.65685415 0  17 5.65685415 0  16.5 5.65685415 0  16 5.65685415 0  15.5 5.65685415 0  15 5.65685415 0  14.5 5.65685415 0  14 5.65685415 0  13.5 5.65685415 0  13 5.65685415 0  12.5 5.65685415 0  12 5.65685415 0  11.5 5.65685415 0  11 5.65685415 0  10.5 5.65685415 0  10 5.65685415 0  9.5 5.65685415 0  9 5.65685415 0  8.5 5.65685415 0  8 5.65685415 0  7.5 5.65685415 0  7 5.65685415 0  6.5 5.65685415 0  6 5.65685415 0  5.5 5.65685415 0  5 5.65685415 0  4.5 5.65685415 0  4 5.65685415 0  3.5 5.65685415 0  3 5.65685415 0  2.5 5.65685415 0  2 5.65685415 0  1.5 5.65685415 0  1 5.65685415 0  0.5 5.65685415 0  50 4.71404505 0  50 3.77123618 0  50 2.82842708 0  50 1.88561809 0  50 0.942809045 0  49.5 0 0  49 0 0  48.5 0 0  48 0 0  47.5 0 0  47 0 0  46.5 0 0  46 0 0  45.5 0 0  45 0 0  44.5 0 0  44 0 0  43.5 0 0  43 0 0  42.5 0 0  42 0 0  41.5 0 0  41 0 0  40.5 0 0  40 0 0  39.5 0 0  39 0 0  38.5 0 0  38 0 0  37.5 0 0  37 0 0  36.5 0 0  36 0 0  35.5 0 0  35 0 0  34.5 0 0  34 0 0  33.5 0 0  33 0 0  32.5 0 0  32 0 0  31.5 0 0  31 0 0  30.5 0 0  30 0 0  29.5 0 0  29 0 0  28.5 0 0  28 0 0  27.5 0 0  27 0 0  26.5 0 0  26 0 0  25.5 0 0  25 0 0  24.5 0 0  24 0 0  23.5 0 0  23 0 0  22.5 0 0  22 0 0  21.5 0 0  21 0 0  20.5 0 0  20 0 0  19.5 0 0  19 0 0  18.5 0 0  18 0 0  17.5 0 0  17 0 0  16.5 0 0  16 0 0  15.5 0 0  15 0 0  14.5 0 0  14 0 0  13.5 0 0  13 0 0  12.5 0 0  12 0 0  11.5 0 0  11 0 0  10.5 0 0  10 0 0  9.5 0 0  9 0 0  8.5 0 0  8 0 0  7.5 0 0  7 0 0  6.5 0 0  6 0 0  5.5 0 0  5 0 0  4.5 0 0  4 0 0  3.5 0 0  3 0 0  2.5 0 0  2 0 0  1.5 0 0  1 0 0  0.5 0 0  50 0 1  50 0 2  50 0 3  0 2.33524275 0.893602192  0 2.87561393 1.93323028  0 4.2367816 0.876864135  0 2.00050235 2.65534091  0 0.981494486 2.34323239  0 3.78543234 1.61830366  0 3.30545568 0.887000024  0 0.812916458 1.58408713  0 1.71948838 1.71268857  0 1.28267908 0.8650629520000001  0 1.21973121 3.10775328  0.5 5.21972132 0.958802223  0.5 4.62159061 1.82634306  0.5 3.88091111 2.5758636  0.5 3.02052855 3.18424606  0.5 2.0669806 3.632725  0.5 1.04967844 3.90746784  1 5.21972132 0.958802223  1 4.62159061 1.82634306  1 3.88091111 2.5758636  1 3.02052855 3.18424606  1 2.0669806 3.632725  1 1.04967844 3.90746784  1.5 5.21972132 0.958802223  1.5 4.62159061 1.82634306  1.5 3.88091111 2.5758636  1.5 3.02052855 3.18424606  1.5 2.0669806 3.632725  1.5 1.04967844 3.90746784  2 5.21972132 0.958802223  2 4.62159061 1.82634306  2 3.88091111 2.5758636  2 3.02052855 3.18424606  2 2.0669806 3.632725  2 1.04967844 3.90746784  2.5 5.21972132 0.958802223  2.5 4.62159061 1.82634306  2.5 3.88091111 2.5758636  2.5 3.02052855 3.18424606  2.5 2.0669806 3.632725  2.5 1.04967844 3.90746784  3 5.21972132 0.958802223  3 4.62159061 1.82634306  3 3.88091111 2.5758636  3 3.02052855 3.18424606  3 2.0669806 3.632725  3 1.04967844 3.90746784  3.5 5.21972132 0.958802223  3.5 4.62159061 1.82634306  3.5 3.88091111 2.5758636  3.5 3.02052855 3.18424606  3.5 2.0669806 3.632725  3.5 1.04967844 3.90746784  4 5.21972132 0.958802223  4 4.62159061 1.82634306  4 3.88091111 2.5758636  4 3.02052855 3.18424606  4 2.0669806 3.632725  4 1.04967844 3.90746784  4.5 5.21972132 0.958802223  4.5 4.62159061 1.82634306  4.5 3.88091111 2.5758636  4.5 3.02052855 3.18424606  4.5 2.0669806 3.632725  4.5 1.04967844 3.90746784  5 5.21972132 0.958802223  5 4.62159061 1.82634306  5 3.88091111 2.5758636  5 3.02052855 3.18424606  5 2.0669806 3.632725  5 1.04967844 3.90746784  5.5 5.21972132 0.958802223  5.5 4.62159061 1.82634306  5.5 3.88091111 2.5758636  5.5 3.02052855 3.18424606  5.5 2.0669806 3.632725  5.5 1.04967844 3.90746784  6 5.21972132 0.958802223  6 4.62159061 1.82634306  6 3.88091111 2.5758636  6 3.02052855 3.18424606  6 2.0669806 3.632725  6 1.04967844 3.90746784  6.5 5.21972132 0.958802223  6.5 4.62159061 1.82634306  6.5 3.88091111 2.5758636  6.5 3.02052855 3.18424606  6.5 2.0669806 3.632725  6.5 1.04967844 3.90746784  7 5.21972132 0.958802223  7 4.62159061 1.82634306  7 3.88091111 2.5758636  7 3.02052855 3.18424606  7 2.0669806 3.632725  7 1.04967844 3.90746784  7.5 5.21972132 0.958802223  7.5 4.62159061 1.82634306  7.5 3.88091111 2.5758636  7.5 3.02052855 3.18424606  7.5 2.0669806 3.632725  7.5 1.04967844 3.90746784  8 5.21972132 0.958802223  8 4.62159061 1.82634306  8 3.88091111 2.5758636  8 3.02052855 3.18424606  8 2.0669806 3.632725  8 1.04967844 3.90746784  8.5 5.21972132 0.958802223  8.5 4.62159061 1.82634306  8.5 3.88091111 2.5758636  8.5 3.02052855 3.18424606  8.5 2.0669806 3.632725  8.5 1.04967844 3.90746784  9 5.21972132 0.958802223  9 4.62159061 1.82634306  9 3.88091111 2.5758636  9 3.02052855 3.18424606  9 2.0669806 3.632725  9 1.04967844 3.90746784  9.5 5.21972132 0.958802223  9.5 4.62159061 1.82634306  9.5 3.88091111 2.5758636  9.5 3.02052855 3.18424606  9.5 2.0669806 3.632725  9.5 1.04967844 3.90746784  10 5.21972132 0.958802223  10 4.62159061 1.82634306  10 3.88091111 2.5758636  10 3.02052855 3.18424606  10 2.0669806 3.632725  10 1.04967844 3.90746784  10.5 5.21972132 0.958802223  10.5 4.62159061 1.82634306  10.5 3.88091111 2.5758636  10.5 3.02052855 3.18424606  10.5 2.0669806 3.632725  10.5 1.04967844 3.90746784  11 5.21972132 0.958802223  11 4.62159061 1.82634306  11 3.88091111 2.5758636  11 3.02052855 3.18424606  11 2.0669806 3.632725  11 1.04967844 3.90746784  11.5 5.21972132 0.958802223  11.5 4.62159061 1.82634306  11.5 3.88091111 2.5758636  11.5 3.02052855 3.18424606  11.5 2.0669806 3.632725  11.5 1.04967844 3.90746784  12 5.21972132 0.958802223  12 4.62159061 1.82634306  12 3.88091111 2.5758636  12 3.02052855 3.18424606  12 2.0669806 3.632725  12 1.04967844 3.90746784  12.5 5.21972132 0.958802223  12.5 4.62159061 1.82634306  12.5 3.88091111 2.5758636  12.5 3.02052855 3.18424606  12.5 2.0669806 3.632725  12.5 1.04967844 3.90746784  13 5.21972132 0.958802223  13 4.62159061 1.82634306  13 3.88091111 2.5758636  13 3.02052855 3.18424606  13 2.0669806 3.632725  13 1.04967844 3.90746784  13.5 5.21972132 0.958802223  13.5 4.62159061 1.82634306  13.5 3.88091111 2.5758636  13.5 3.02052855 3.18424606  13.5 2.0669806 3.632725  13.5 1.04967844 3.90746784  14 5.21972132 0.958802223  14 4.62159061 1.82634306  14 3.88091111 2.5758636  14 3.02052855 3.18424606  14 2.0669806 3.632725  14 1.04967844 3.90746784  14.5 5.21972132 0.958802223  14.5 4.62159061 1.82634306  14.5 3.88091111 2.5758636  14.5 3.02052855 3.18424606  14.5 2.0669806 3.632725  14.5 1.04967844 3.90746784  15 5.21972132 0.958802223  15 4.62159061 1.82634306  15 3.88091111 2.5758636  15 3.02052855 3.18424606  15 2.0669806 3.632725  15 1.04967844 3.90746784  15.5 5.21972132 0.958802223  15.5 4.62159061 1.82634306  15.5 3.88091111 2.5758636  15.5 3.02052855 3.18424606  15.5 2.0669806 3.632725  15.5 1.04967844 3.90746784  16 5.21972132 0.958802223  16 4.62159061 1.82634306  16 3.88091111 2.5758636  16 3.02052855 3.18424606  16 2.0669806 3.632725  16 1.04967844 3.90746784  16.5 5.21972132 0.958802223  16.5 4.62159061 1.82634306  16.5 3.88091111 2.5758636  16.5 3.02052855 3.18424606  16.5 2.0669806 3.632725  16.5 1.04967844 3.90746784  17 5.21972132 0.958802223  17 4.62159061 1.82634306  17 3.88091111 2.5758636  17 3.02052855 3.18424606  17 2.0669806 3.632725  17 1.04967844 3.90746784  17.5 5.21972132 0.958802223  17.5 4.62159061 1.82634306  17.5 3.88091111 2.5758636  17.5 3.02052855 3.18424606  17.
[...]
<PointData  Vectors="f_261141-0"> 
<DataArray  type="Float64"  Name="f_261141-0"  NumberOfComponents="3" format="ascii">0.0000000000000000e+00 0.0000000000000000e+00 0.0000000000000000e+00  0.0000000000000000e+00 0.0000000000000000e+00 1.0157427070694522e-02  0.0000000000000000e+00 5.5920934869975222e-02 0.0000000000000000e+00  1.6279054736786799e-01 0.0000000000000000e+00 1.3170174801989405e+00  4.0825077864529269e-01 3.9156836436528654e-02 1.3456895525281813e+00  3.8935160806305913e-01 0.0000000000000000e+00 1.3196089403672051e+00  0.0000000000000000e+00 0.0000000000000000e+00 1.3419218545141781e-02  0.0000000000000000e+00 0.0000000000000000e+00 8.3490741306870564e-03  0.0000000000000000e+00 0.0000000000000000e+00 1.8024892885923163e-03  0.0000000000000000e+00 -5.8372266039920673e-03 1.1395097926502028e-02  0.0000000000000000e+00 2.3317732356183799e-03 2.4763961852436935e-02  0.0000000000000000e+00 1.0769045069320457e-02 2.4547393398998855e-02  0.0000000000000000e+00 1.9858576001575652e-02 2.2857847181340544e-02  0.0000000000000000e+00 2.6080420689357658e-02 2.6024771551661944e-02  0.0000000000000000e+00 3.7717437984793399e-02 1.6209402813464689e-02  0.0000000000000000e+00 3.5316164059675990e-02 0.0000000000000000e+00  0.0000000000000000e+00 2.6937741280521933e-02 0.0000000000000000e+00  0.0000000000000000e+00 1.6390434816515892e-02 0.0000000000000000e+00  0.0000000000000000e+00 1.0133873900321031e-02 0.0000000000000000e+00  0.0000000000000000e+00 4.8783786028132117e-03 0.0000000000000000e+00  2.5211705087954599e-03 0.0000000000000000e+00 1.0433261656710107e-02  3.9494410093745894e-03 0.0000000000000000e+00 9.0640533056930393e-03  5.3577068767337180e-03 0.0000000000000000e+00 9.5827241976317763e-03  7.4298244455119622e-03 0.0000000000000000e+00 1.0142241938371287e-02  1.0291750156238840e-02 0.0000000000000000e+00 1.0742116214913717e-02  1.1340579999224949e-02 0.0000000000000000e+00 1.2453920395835812e-02  1.3702121204252559e-02 0.0000000000000000e+00 1.4253253286435556e-02  1.4884638540187815e-02 0.0000000000000000e+00 1.6635286869438111e-02  1.6662554451549780e-02 0.0000000000000000e+00 2.0882888475751295e-02  1.8548391373572094e-02 0.0000000000000000e+00 2.5971040716599225e-02  2.0868561027127256e-02 0.0000000000000000e+00 2.8748583033802975e-02  2.3782311645743386e-02 0.0000000000000000e+00 2.8608282984350347e-02  2.5369920030887890e-02 0.0000000000000000e+00 3.3188708939287749e-02  2.5585146706491264e-02 0.0000000000000000e+00 3.8159401068541904e-02  2.9640100237818188e-02 0.0000000000000000e+00 4.1046203815590002e-02  3.0423282144175563e-02 0.0000000000000000e+00 4.6292247746390111e-02  3.2696697473026524e-02 0.0000000000000000e+00 5.1768062826633626e-02  3.4817714740260970e-02 0.0000000000000000e+00 5.6960310920949934e-02  3.7131042501735941e-02 0.0000000000000000e+00 6.0123055922782664e-02  3.9371088177181428e-02 0.0000000000000000e+00 6.4451773811280103e-02  4.1257865813094492e-02 0.0000000000000000e+00 6.8174342847308181e-02  4.4369067260360794e-02 0.0000000000000000e+00 7.5224842385247404e-02  4.5841508853460666e-02 0.0000000000000000e+00 7.9492777645483598e-02  4.7875321605300593e-02 0.0000000000000000e+00 8.6020341511890891e-02  5.0472778692563669e-02 0.0000000000000000e+00 9.2513067915936498e-02  5.2287462494648940e-02 0.0000000000000000e+00 9.9964371462917950e-02  5.2843125594369669e-02 0.0000000000000000e+00 1.0938056399716407e-01  5.5443430034294118e-02 0.0000000000000000e+00 1.1380189545084661e-01  5.7213329510822031e-02 0.0000000000000000e+00 1.2212032739470659e-01  5.7965708379948307e-02 0.0000000000000000e+00 1.3081359119914654e-01  6.2026578431824936e-02 0.0000000000000000e+00 1.3423795743073194e-01  6.4567215499348296e-02 0.0000000000000000e+00 1.4325007807606557e-01  6.5812885628537154e-02 0.0000000000000000e+00 1.5313301325919132e-01  6.8099604461210286e-02 0.0000000000000000e+00 1.6157137065770405e-01  7.0729149588084697e-02 0.0000000000000000e+00 1.7172136626156620e-01  7.3280939101781017e-02 0.0000000000000000e+00 1.7910643489445108e-01  7.4369798084492816e-02 0.0000000000000000e+00 1.9112301903940754e-01  7.6876114200802495e-02 0.0000000000000000e+00 1.9807917919178442e-01  7.8798421156115725e-02 0.0000000000000000e+00 2.1010095333845286e-01  8.0764458111524343e-02 0.0000000000000000e+00 2.1879965813487184e-01  8.3457108093133128e-02 0.0000000000000000e+00 2.2765867525595115e-01  8.3970516088041555e-02 0.0000000000000000e+00 2.3702686628432623e-01  8.6078977975802190e-02 0.0000000000000000e+00 2.4763188630516236e-01  8.6609662186668004e-02 0.0000000000000000e+00 2.6169972018787790e-01  8.9951377008668731e-02 0.0000000000000000e+00 2.7031453161310354e-01  9.1323207872233095e-02 0.0000000000000000e+00 2.8216468820376278e-01  9.3024714232816302e-02 0.0000000000000000e+00 2.9259216930654425e-01  9.4083728761395383e-02 0.0000000000000000e+00 3.0576420444368085e-01  9.6146612969312178e-02 0.0000000000000000e+00 3.1769930231548826e-01  9.7654186986512598e-02 0.0000000000000000e+00 3.3131934432820503e-01  9.9376251708598776e-02 0.0000000000000000e+00 3.4592588975186939e-01  1.0138659882451431e-01 0.0000000000000000e+00 3.5857131385759528e-01  1.0300833693050152e-01 0.0000000000000000e+00 3.7442111977065917e-01  1.0497419918295441e-01 0.0000000000000000e+00 3.8751933635185976e-01  1.0763385996413313e-01 0.0000000000000000e+00 4.0020304908538257e-01  1.0824098660149266e-01 0.0000000000000000e+00 4.1276722759524748e-01  1.1046715257192267e-01 0.0000000000000000e+00 4.2782904266992938e-01  1.1229498370958625e-01 0.0000000000000000e+00 4.4344444502866803e-01  1.1347857787502111e-01 0.0000000000000000e+00 4.5869532779357658e-01  1.1404846861870470e-01 0.0000000000000000e+00 4.7447827388646985e-01  1.1548240114774097e-01 0.0000000000000000e+00 4.9159328160580945e-01  1.1759497571285413e-01 0.0000000000000000e+00 5.0709756164695474e-01  1.1973223307202625e-01 0.0000000000000000e+00 5.2229604837413168e-01  1.2209477756186655e-01 0.0000000000000000e+00 5.4007646052952196e-01  1.2283850760184428e-01 0.0000000000000000e+00 5.5781416566534925e-01  1.2415327702371738e-01 0.0000000000000000e+00 5.7468329953227348e-01  1.2582637984535774e-01 0.0000000000000000e+00 5.9172202790152340e-01  1.2842602296768416e-01 0.0000000000000000e+00 6.0972680602748663e-01  1.2983510647593874e-01 0.0000000000000000e+00 6.2685555976225527e-01  1.3155613777445424e-01 0.0000000000000000e+00 6.4708190680383804e-01  1.3267026264345672e-01 0.0000000000000000e+00 6.6568460960903142e-01  1.3482506430916097e-01 0.0000000000000000e+00 6.8413881610797200e-01  1.3566988803391367e-01 0.0000000000000000e+00 7.0613996967361514e-01  1.3800349617538510e-01 0.0000000000000000e+00 7.2458908428384072e-01  1.3947604096630811e-01 0.0000000000000000e+00 7.4354114821924400e-01  1.4208630575480322e-01 0.0000000000000000e+00 7.6377609579769823e-01  1.4318530942881005e-01 0.0000000000000000e+00 7.8384421805845927e-01  1.4476824827071225e-01 0.0000000000000000e+00 8.0359171777574390e-01  1.4548857415571145e-01 0.0000000000000000e+00 8.2529826936705819e-01  1.4649906044752725e-01 0.0000000000000000e+00 8.4758402436555258e-01  1.4892965321536583e-01 0.0000000000000000e+00 8.6968323944232473e-01  1.4986604746317397e-01 0.0000000000000000e+00 8.9109244127154419e-01  1.5138276803562697e-01 0.0000000000000000e+00 9.1371832512271833e-01  1.5331251463089363e-01 0.0000000000000000e+00 9.3550963723113467e-01  1.5441085830441109e-01 0.0000000000000000e+00 9.5581781152285494e-01  1.5526793098834246e-01 0.0000000000000000e+00 9.7937668427319235e-01  1.5689898726665014e-01 0.0000000000000000e+00 1.0015741938777361e+00  1.5887478779700329e-01 0.0000000000000000e+00 1.0240022984040940e+00  1.6014181206665765e-01 0.0000000000000000e+00 1.0468032648607617e+00  1.6117377308029132e-01 0.0000000000000000e+00 1.0706831081721917e+00  1.6102603332820178e-01 0.0000000000000000e+00 1.0950598650402761e+00  1.6135476596774392e-01 0.0000000000000000e+00 1.1211601193333298e+00  1.6304297659789990e-01 0.0000000000000000e+00 1.1449035316927700e+00  1.6412179905713029e-01 0.0000000000000000e+00 1.1683087927470874e+00  1.6571073785410920e-01 0.0000000000000000e+00 1.1909456367697298e+00  1.6534106534451115e-01 0.0000000000000000e+00 1.2151653828935391e+00  1.6494785402169468e-01 0.0000000000000000e+00 1.2393164632951117e+00  1.6425258608990811e-01 0.0000000000000000e+00 1.2646687344098917e+00  1.6314017429521380e-01 0.0000000000000000e+00 1.2903303202280940e+00  1.7178041225293716e-01 -2.5073607310576417e-03 1.3163851133853928e+00  1.8968107237818388e-01 -4.0377877820191648e-03 1.3191439790149506e+00  2.1448765838428918e-01 -4.5064073571224536e-03 1.3236679691772908e+00  2.4999888127485617e-01 -2.9367939928228023e-03 1.3302513306457173e+00  2.8967905499465185e-01 3.2307854253139506e-03 1.3399332204949697e+00  3.4481534252938090e-01 1.3866452205721948e-02 1.3476019602546383e+00  4.0317953878118712e-01 4.1100715801560307e-02 1.3156727557405150e+00  3.9810838239732466e-01 4.2915636346927861e-02 1.2851858656415092e+00  3.9346647048094008e-01 4.5968798751081411e-02 1.2558413322049142e+00  3.9021210385648891e-01 4.8808967085705819e-02 1.2252036054943742e+00  3.8534992775645210e-01 5.2485156112904885e-02 1.1971894937945451e+00  3.7966941398290666e-01 5.3698100512955829e-02 1.1700039145649299e+00  3.7368862528392222e-01 5.5044287418698254e-02 1.1435047913270571e+00  3.6887048822267871e-01 5.5756695876615192e-02 1.1172189887431880e+00  3.6389244316624653e-01 5.6150280795976830e-02 1.0917143834875009e+00  3.5908677627942026e-01 5.6999863379529635e-02 1.0662036311378411e+00  3.5430199765222742e-01 5.7172767119721371e-02 1.0410836555251359e+00  3.4947399643972654e-01 5.4878673471005161e-02 1.0178862816633558e+00  3.4520392148533940e-01 5.4656156262484108e-02 9.9255119908535572e-01  3.4118846280266629e-01 5.3498349768324086e-02 9.6839634648374451e-01  3.3631138343176420e-01 5.2520794647696753e-02 9.4724321434459902e-01  3.3416841036064998e-01 5.4203438435170503e-02 9.2512159682035300e-01  3.2958319559040800e-01 5.4354343060072551e-02 9.0022162400484296e-01  3.2566744402809267e-01 5.2276075133354409e-02 8.7709062417882977e-01  3.2083641486467990e-01 5.1067369157134640e-02 8.5532741014652514e-01  3.1631695577545416e-01 5.0880569350142978e-02 8.3326489695225747e-01  3.1254147795408110e-01 5.0390639403215698e-02 8.1140805210051326e-01  3.0990493800847124e-01 5.1044933047327760e-02 7.8813681337848851e-01  3.0670790540232451e-01 5.0410117972611683e-02 7.6760224147507439e-01  3.0261416375678823e-01 5.2423099580976892e-02 7.4659278326512701e-01  2.9853831892265809e-01 5.1835436525926211e-02 7.2726420930249436e-01  2.9493173100744291e-01 5.1841354680786385e-02 7.0705098072450034e-01  2.9145792089567840e-01 5.0807207566701103e-02 6.8738874211430445e-01  2.8761785008690582e-01 5.0781891465448870e-02 6.6889007105111009e-01  2.8423223092249428e-01 4.9797796630837790e-02 6.4952811040141434e-01  2.8003596778913187e-01 4.9910189353566170e-02 6.3084682102871470e-01  2.7671777786751067e-01 5.1179008028080598e-02 6.1195349715778169e-01  2.7320810101795151e-01 5.0285914542169081e-02 5.9449851467803283e-01  2.6936401859762721e-01 5.1068331032639885e-02 5.7655786361411643e-01  2.6583169042909066e-01 5.1256984392171120e-02 5.5914767829740908e-01  2.6178672084686627e-01 5.2333826708288032e-02 5.4192057329498999e-01  2.5808752927919759e-01 5.2745380796184987e-02 5.2525295862717936e-01  2.5353035272621477e-01 5.3041646721855004e-02 5.0957048710121455e-01  2.4971460320094585e-01 5.2461306883064614e-02 4.9272407697553572e-01  2.4637966420368376e-01 5.0976069214244767e-02 4.7681730264039207e-01  2.4175561248344121e-01 5.2339975358373612e-02 4.6142082262241513e-01  2.3789605736378105e-01 5.3568604182480890e-02 4.4535207253588749e-01  2.3371733463362943e-01 5.1546365312648279e-02 4.3023188872501794e-01  2.2958620255150589e-01 5.3645642397417231e-02 4.1341930188930287e-01  2.2524504023606925e-01 5.2726976636550765e-02 3.9865941451266046e-01  2.2118492551537383e-01 5.1985918029062390e-02 3.8405032130320671e-01  2.1712641453165105e-01 5.2329929823137181e-02 3.6828145719971533e-01  2.1281230204166268e-01 5.2472856289221409e-02 3.5366690360640357e-01  2.0895327550384316e-01 5.1040437542700198e-02 3.3932673349408865e-01  2.0513818267036518e-01 5.1538241987755008e-02 3.2532921548694610e-01  2.0122417637994908e-01 5.0802445281098341e-02 3.1183855629563867e-01  1.9693349319721057e-01 5.0897828174142810e-02 2.9889854700621465e-01  1.9353143029900585e-01 4.9858681060875154e-02 2.8686178417157393e-01  1.8973551102881234e-01 5.0734222635270727e-02 2.7347359527410098e-01  1.8584672250647530e-01 4.9737578603349174e-02 2.6367640667890718e-01  1.8176997279875654e-01 5.0810170649139799e-02 2.5301693653429747e-01  1.7779399287903649e-01 5.1065932516444396e-02 2.4102306982652094e-01  1.7464453662171112e-01 5.0373887081846369e-02 2.2887836059675595e-01  1.7049441098700843e-01 5.0273701429233701e-02 2.1834088596201789e-01  1.6611067834813734e-01 5.1255784374964322e-02 2.0751511678518991e-01  1.6148829021847763e-01 5.1463508890720530e-02 1.9805121724456673e-01  1.5773003182753390e-01 5.0264565250515855e-02 1.8805852888985219e-01  1.5319484103991438e-01 5.0305296282115233e-02 1.7938700063599111e-01  1.4943994992774426e-01 5.0560649447177398e-02 1.6873731213779913e-01  1.4465844561953772e-01 5.0673498034497916e-02 1.6028428583308560e-01  1.4095897336010721e-01 5.0533849686830723e-02 1.5082310186328937e-01  1.3736458803454868e-01 5.2202021799110272e-02 1.4109867841072429e-01  1.3309209998865343e-01 5.0968722463931929e-02 1.3475430043325090e-01  1.2899031766087421e-01 5.1952235810459720e-02 1.2708711522580829e-01  1.2460736132685846e-01 5.1551376302038203e-02 1.1954905078844179e-01  1.2037982391741567e-01 5.1854136166502272e-02 1.1192870410989944e-01  1.1677175564432327e-01 5.1826561506893951e-02 1.0371876314912511e-01  1.1299242267799485e-01 5.1432966381476555e-02 9.6721526457132487e-02  1.0875895250019850e-01 5.1160839151794611e-02 9.0220488981655897e-02  1.0522656942679132e-01 5.1266678708000002e-02 8.3016749768513878e-02  1.0152601656076286e-01 5.0972692411962645e-02 7.6469745782054829e-02  9.7867359923505801e-02 5.1824892223636655e-02 6.9193465456794265e-02  9.3420117540585865e-02 5.1546069984786051e-02 6.3488422225267960e-02  8.8471188870020076e-02 5.1732409316749405e-02 5.7552502465269932e-02  8.4680051427660302e-02 5.1396986817755619e-02 5.2496624508415191e-02  8.1000090711357192e-02 5.2791514009614841e-02 4.5845821354984141e-02  7.7136639739273150e-02 5.1573545955671811e-02 4.1694071719766260e-02  7.3200439328185221e-02 5.0933587346186901e-02 3.6624549459083743e-02  6.8990972708154241e-02 5.2820743059451253e-02 3.0845327920707693e-02  6.4842368770285846e-02 5.2091330831639811e-02 2.7779718766727926e-02  5.9986891121955738e-02 5.2624036187253240e-02 2.5684711002055816e-02  5.6025237958750314e-02 5.3107846451330376e-02 2.1384611067758932e-02  5.2365669856982613e-02 5.3861691970568303e-02 1.6684074198544414e-02  4.8100861267641466e-02 5.2417257571181042e-02 1.5319015059183498e-02  4.4446280511903268e-02 5.3483508860603296e-02 1.1874702611211560e-02  4.0669926307505634e-02 5.2736715871990844e-02 9.6044911406939180e-03  3.6494184563151094e-02 5.3506543490493809e-02 7.4708130598515827e-03  3.2652594346003073e-02 5.3874193861635396e-02 5.3262018948856110e-03  2.8579935674414230e-02 5.4253498341018322e-02 3.8614759472948138e-03  2.5099469383129621e-02 5.3813160948888869e-02 8.6506514466344988e-04  2.0950831225625067e-02 5.4471089789850165e-02 -4.2398232064113473e-04  1.6833009557497339e-02 5.3463701919635918e-02 -1.7735059486770528e-04  1.2930236867466794e-02 5.6114165737847416e-02 -8.0049887526315879e-04  8.2450845185858112e-03 5.6636986788098073e-02 0.0000000000000000e+00  3.9684689266663844e-03 5.6101903146068909e-02 0.0000000000000000e+00  4.0657365928141270e-01 2.6327838902042724e-02 1.3361054819067020e+00  4.0066653902793442e-01 1.8154333567945279e-02 1.3299531921301304e+00  3.9408119641029854e-01 1.1211256810591402e-02 1.3230169541093264e+00  3.9741048957106145e-01 9.0796748618837200e-03 1.3249191524447235e+00  3.9196178523301162e-01 3.1301907530012015e-03 1.3218853971398643e+00  3.8279201581641736e-01 0.0000000000000000e+00 1.2882707376250664e+00  3.7838062431042035e-01 0.0000000000000000e+00 1.2617342167295247e+00  3.7359496921744728e-01 0.0000000000000000e+00 1.2335445041651816e+00  3.6980796885684197e-01 0.0000000000000000e+00 1.2080016227657926e+00  3.6432258881951246e-01 0.0000000000000000e+00 1.1856893376930862e+00  3.6188648178536337e-01 0.0000000000000000e+00 1.1597540459294500e+00  3.5786542787057285e-01 0.0000000000000000e+00 1.1375768054638213e+00  3.5468198339121570e-01 0.0000000000000000e+00 1.1147468202026498e+00  3.5306220455108278e-01 0.0000000000000000e+00 1.0875335984325154e+00  3.4899787397101600e-01 0.0000000000000000e+00 1.0675323798737331e+00  3.4561822525606867e-01 0.0000000000000000e+00 1.0466701791307784e+00  3.4262548644138935e-01 0.0000000000000000e+00 1.0217485976328180e+00  3.3984942629283055e-01 0.0000000000000000e+00 9.9777932224705534e-01  3.3801744283544621e-01 0.0000000000000000e+00 9.7241560393150128e-01  3.3415430291003284e-01 0.0000000000000000e+00 9.5431737392239679e-01  3.2873920212112184e-01 0.0000000000000000e+00 9.3283085370597829e-01  3.2414032733661113e-01 0.0000000000000000e+00 9.1128285203707571e-01  3.2295706278821379e-01 0.0000000000000000e+00 8.8464456994812102e-01  3.2030529969274230e-01 0.0000000000000000e+00 8.6752398641916506e-01  3.1600216655806274e-01 0.0000000000000000e+00 8.4321719092829028e-01  3.1398659233573156e-01 0.0000000000000000e+00 8.1931713050953303e-01  3.0810621142673206e-01 0.0000000000000000e+00 8.0397503738491938e-01  3.0559329158151310e-01 0.0000000000000000e+00 7.8039086484445874e-01  3.0351857712299002e-01 0.0000000000000000e+00 7.6267452764122379e-01  2.9792595549311868e-01 0.0000000000000000e+00 7.4163644915918114e-01  2.9348888264169298e-01 0.0000000000000000e+00 7.2118969282114975e-01  2.9121285214031634e-01 0.0000000000000000e+00 6.9675821092367418e-01  2.8709591979050042e-01 0.0000000000000000e+00 6.8130763428124697e-01  2.8377465749345410e-01 0.0000000000000000e+00 6.6083648594045641e-01  2.8096000119153447e-01 0.0000000000000000e+00 6.4399147451971384e-01  2.7522220293963912e-01 0.0000000000000000e+00 6.2699415600226949e-01  2.6988906767983123e-01 0.0000000000000000e+00 6.0891947675827462e-01  2.6848683175023752e-01 0.0000000000000000e+00 5.8658608656364108e-01  2.6506807874479743e-01 0.0000000000000000e+00 5.7192236444276567e-01  2.6231123274829249e-01 0.0000000000000000e+00 5.5066528193542041e-01  2.5735633640338523e-01 0.0000000000000000e+00 5.3843700758281121e-01  2.5262994733493643e-01 0.0000000000000000e+00 5.1879245547369801e-01  2.5036475552390852e-01 0.0000000000000000e+00 5.0086404413073349e-01  2.4641679338180431e-01 0.0000000000000000e+00 4.8747637774406405e-01  2.4260442578281979e-01 0.0000000000000000e+00 4.6756453885757021e-01  2.3746744096464770e-01 0.0000000000000000e+00 4.5621396361769206e-01  2.3215604845573445e-01 0.0000000000000000e+00 4.3797603959803477e-01  2.2985168629988023e-01 0.0000000000000000e+00 4.1987288706590081e-01  2.2525296258095240e-01 0.0000000000000000e+00 4.0972380736007524e-01  2.1983388701303327e-01 0.0000000000000000e+00 3.9653290532161584e-01  2.1709246004260316e-01 0.0000000000000000e+00 3.7831759515139041e-01  2.1260936263713351e-01 0.0000000000000000e+00 3.6893206951121055e-01  2.1067508233401327e-01 0.0000000000000000e+00 3.5104994750937246e-01  2.0626724554937340e-01 0.0000000000000000e+00 3.4097211384093679e-01  2.0117766329985390e-01 0.0000000000000000e+00 3.2749462928233730e-01  1.9592416854504546e-01 0.0000000000000000e+00 3.1406771268459688e-01  1.9293873462678826e-01 0.0000000000000000e+00 2.9864191716389443e-01  1.8772233663450860e-01 0.0000000000000000e+00 2.9134950387445896e-01  1.8513185923329142e-01 0.0000000000000000e+00 2.7522508554845099e-01  1.8104133623829838e-01 0.0000000000000000e+00 2.66665172630149