<?xml version="1.0"?>
<VTKFile type="UnstructuredGrid"  version="0.1"  >
<UnstructuredGrid>
<Piece  NumberOfPoints="3069" NumberOfCells="12882">
<Points>
<DataArray  type="Float64"  NumberOfComponents="3"  format="ascii">0 0 0  0 0 4  0 5.65685415 0  50 0 4  50 5.65685415 0  50 0 0  0 0 1  0 0 2  0 0 3  0 1.04967844 3.90746784  0 2.0669806 3.632725  0 3.02052855 3.18424606  0 3.88091111 2.5758636  0 4.62159061 1.82634306  0 5.21972132 0.958802283  0 4.71404505 0  0 3.77123618 0  0 2.82842708 0  0 1.88561809 0  0 0.942809045 0  0.5 0 4  1 0 4  1.5 0 4  2 0 4  2.5 0 4  3 0 4  3.5 0 4  4 0 4  4.5 0 4  5 0 4  5.5 0 4  6 0 4  6.5 0 4  7 0 4  7.5 0 4  8 0 4  8.5 0 4  9 0 4  9.5 0 4  10 0 4  10.5 0 4  11 0 4  11.5 0 4  12 0 4  12.5 0 4  13 0 4  13.5 0 4  14 0 4  14.5 0 4  15 0 4  15.5 0 4  16 0 4  16.5 0 4  17 0 4  17.5 0 4  18 0 4  18.5 0 4  19 0 4  19.5 0 4  20 0 4  20.5 0 4  21 0 4  21.5 0 4  22 0 4  22.5 0 4  23 0 4  23.5 0 4  24 0 4  24.5 0 4  25 0 4  25.5 0 4  26 0 4  26.5 0 4  27 0 4  27.5 0 4  28 0 4  28.5 0 4  29 0 4  29.5 0 4  30 0 4  30.5 0 4  31 0 4  31.5 0 4  32 0 4  32.5 0 4  33 0 4  33.5 0 4  34 0 4  34.5 0 4  35 0 4  35.5 0 4  36 0 4  36.5 0 4  37 0 4  37.5 0 4  38 0 4  38.5 0 4  39 0 4  39.5 0 4  40 0 4  40.5 0 4  41 0 4  41.5 0 4  42 0 4  42.5 0 4  43 0 4  43.5 0 4  44 0 4  44.5 0 4  45 0 4  45.5 0 4  46 0 4  46.5 0 4  47 0 4  47.5 0 4  48 0 4  48.5 0 4  49 0 4  49.5 0 4  50 1.04967844 3.90746784  50 2.0669806 3.632725  50 3.02052855 3.18424606  50 3.88091111 2.5758636  50 4.62159061 1.82634306  50 5.21972132 0.958802283  49.5 5.65685415 0  49 5.65685415 0  48.5 5.65685415 0  48 5.65685415 0  47.5 5.65685415 0  47 5.65685415 0  46.5 5.65685415 0  46 5.65685415 0  45.5 5.65685415 0  45 5.65685415 0  44.5 5.65685415 0  44 5.65685415 0  43.5 5.65685415 0  43 5.65685415 0  42.5 5.65685415 0  42 5.65685415 0  41.5 5.65685415 0  41 5.65685415 0  40.5 5.65685415 0  40 5.65685415 0  39.5 5.65685415 0  39 5.65685415 0  38.5 5.65685415 0  38 5.65685415 0  37.5 5.65685415 0  37 5.65685415 0  36.5 5.65685415 0  36 5.65685415 0  35.5 5.65685415 0  35 5.65685415 0  34.5 5.65685415 0  34 5.65685415 0  33.5 5.65685415 0  33 5.65685415 0  32.5 5.65685415 0  32 5.65685415 0  31.5 5.65685415 0  31 5.65685415 0  30.5 5.65685415 0  30 5.65685415 0  29.5 5.65685415 0  29 5.65685415 0  28.5 5.65685415 0  28 5.65685415 0  27.5 5.65685415 0  27 5.65685415 0  26.5 5.65685415 0  26 5.65685415 0  25.5 5.65685415 0  25 5.65685415 0  24.5 5.65685415 0  24 5.65685415 0  23.5 5.65685415 0  23 5.65685415 0  22.5 5.65685415 0  22 5.65685415 0  21.5 5.65685415 0  21 5.65685415 0  20.5 5.65685415 0  20 5.65685415 0  19.5 5.65685415 0  19 5.65685415 0  18.5 5.65685415 0  18 5.65685415 0  17.5 5.65685415 0  17 5.65685415 0  16.5 5.65685415 0  16 5.65685415 0  15.5 5.65685415 0  15 5.65685415 0  14.5 5.65685415 0  14 5.65685415 0  13.5 5.65685415 0  13 5.65685415 0  12.5 5.65685415 0  12 5.65685415 0  11.5 5.65685415 0  11 5.65685415 0  10.5 5.65685415 0  10 5.65685415 0  9.5 5.65685415 0  9 5.65685415 0  8.5 5.65685415 0  8 5.65685415 0  7.5 5.65685415 0  7 5.65685415 0  6.5 5.65685415 0  6 5.65685415 0  5.5 5.65685415 0  5 5.65685415 0  4.5 5.65685415 0  4 5.65685415 0  3.5 5.65685415 0  3 5.65685415 0  2.5 5.65685415 0  2 5.65685415 0  1.5 5.65685415 0  1 5.65685415 0  0.5 5.65685415 0  50 4.71404505 0  50 3.77123618 0  50 2.82842708 0  50 1.88561809 0  50 0.942809045 0  49.5 0 0  49 0 0  48.5 0 0  48 0 0  47.5 0 0  47 0 0  46.5 0 0  46 0 0  45.5 0 0  45 0 0  44.5 0 0  44 0 0  43.5 0 0  43 0 0  42.5 0 0  42 0 0  41.5 0 0  41 0 0  40.5 0 0  40 0 0  39.5 0 0  39 0 0  38.5 0 0  38 0 0  37.5 0 0  37 0 0  36.5 0 0  36 0 0  35.5 0 0  35 0 0  34.5 0 0  34 0 0  33.5 0 0  33 0 0  32.5 0 0  32 0 0  31.5 0 0  31 0 0  30.5 0 0  30 0 0  29.5 0 0  29 0 0  28.5 0 0  28 0 0  27.5 0 0  27 0 0  26.5 0 0  26 0 0  25.5 0 0  25 0 0  24.5 0 0  24 0 0  23.5 0 0  23 0 0  22.5 0 0  22 0 0  21.5 0 0  21 0 0  20.5 0 0  20 0 0  19.5 0 0  19 0 0  18.5 0 0  18 0 0  17.5 0 0  17 0 0  16.5 0 0  16 0 0  15.5 0 0  15 0 0  14.5 0 0  14 0 0  13.5 0 0  13 0 0  12.5 0 0  12 0 0  11.5 0 0  11 0 0  10.5 0 0  10 0 0  9.5 0 0  9 0 0  8.5 0 0  8 0 0  7.5 0 0  7 0 0  6.5 0 0  6 0 0  5.5 0 0  5 0 0  4.5 0 0  4 0 0  3.5 0 0  3 0 0  2.5 0 0  2 0 0  1.5 0 0  1 0 0  0.5 0 0  50 0 1  50 0 2  50 0 3  0 2.33524275 0.893602192  0 2.87561393 1.93323028  0 4.2367816 0.876864135  0 2.00050235 2.65534091  0 0.981494486 2.34323239  0 3.78543234 1.61830366  0 3.30545568 0.887000024  0 0.812916458 1.58408713  0 1.71948838 1.71268857  0 1.28267908 0.8650629520000001  0 1.21973121 3.10775328  0.5 5.21972132 0.958802223  0.5 4.62159061 1.82634306  0.5 3.88091111 2.5758636  0.5 3.02052855 3.18424606  0.5 2.0669806 3.632725  0.5 1.04967844 3.90746784  1 5.21972132 0.958802223  1 4.62159061 1.82634306  1 3.88091111 2.5758636  1 3.02052855 3.18424606  1 2.0669806 3.632725  1 1.04967844 3.90746784  1.5 5.21972132 0.958802223  1.5 4.62159061 1.82634306  1.5 3.88091111 2.5758636  1.5 3.02052855 3.18424606  1.5 2.0669806 3.632725  1.5 1.04967844 3.90746784  2 5.21972132 0.958802223  2 4.62159061 1.82634306  2 3.88091111 2.5758636  2 3.02052855 3.18424606  2 2.0669806 3.632725  2 1.04967844 3.90746784  2.5 5.21972132 0.958802223  2.5 4.62159061 1.82634306  2.5 3.88091111 2.5758636  2.5 3.02052855 3.18424606  2.5 2.0669806 3.632725  2.5 1.04967844 3.90746784  3 5.21972132 0.958802223  3 4.62159061 1.82634306  3 3.88091111 2.5758636  3 3.02052855 3.18424606  3 2.0669806 3.632725  3 1.04967844 3.90746784  3.5 5.21972132 0.958802223  3.5 4.62159061 1.82634306  3.5 3.88091111 2.5758636  3.5 3.02052855 3.18424606  3.5 2.0669806 3.632725  3.5 1.04967844 3.90746784  4 5.21972132 0.958802223  4 4.62159061 1.82634306  4 3.88091111 2.5758636  4 3.02052855 3.18424606  4 2.0669806 3.632725  4 1.04967844 3.90746784  4.5 5.21972132 0.958802223  4.5 4.62159061 1.82634306  4.5 3.88091111 2.5758636  4.5 3.02052855 3.18424606  4.5 2.0669806 3.632725  4.5 1.04967844 3.90746784  5 5.21972132 0.958802223  5 4.62159061 1.82634306  5 3.88091111 2.5758636  5 3.02052855 3.18424606  5 2.0669806 3.632725  5 1.04967844 3.90746784  5.5 5.21972132 0.958802223  5.5 4.62159061 1.82634306  5.5 3.88091111 2.5758636  5.5 3.02052855 3.18424606  5.5 2.0669806 3.632725  5.5 1.04967844 3.90746784  6 5.21972132 0.958802223  6 4.62159061 1.82634306  6 3.88091111 2.5758636  6 3.02052855 3.18424606  6 2.0669806 3.632725  6 1.04967844 3.90746784  6.5 5.21972132 0.958802223  6.5 4.62159061 1.82634306  6.5 3.88091111 2.5758636  6.5 3.02052855 3.18424606  6.5 2.0669806 3.632725  6.5 1.04967844 3.90746784  7 5.21972132 0.958802223  7 4.62159061 1.82634306  7 3.88091111 2.5758636  7 3.02052855 3.18424606  7 2.0669806 3.632725  7 1.04967844 3.90746784  7.5 5.21972132 0.958802223  7.5 4.62159061 1.82634306  7.5 3.88091111 2.5758636  7.5 3.02052855 3.18424606  7.5 2.0669806 3.632725  7.5 1.04967844 3.90746784  8 5.21972132 0.958802223  8 4.62159061 1.82634306  8 3.88091111 2.5758636  8 3.02052855 3.18424606  8 2.0669806 3.632725  8 1.04967844 3.90746784  8.5 5.21972132 0.958802223  8.5 4.62159061 1.82634306  8.5 3.88091111 2.5758636  8.5 3.02052855 3.18424606  8.5 2.0669806 3.632725  8.5 1.04967844 3.90746784  9 5.21972132 0.958802223  9 4.62159061 1.82634306  9 3.88091111 2.5758636  9 3.02052855 3.18424606  9 2.0669806 3.632725  9 1.04967844 3.90746784  9.5 5.21972132 0.958802223  9.5 4.62159061 1.82634306  9.5 3.88091111 2.5758636  9.5 3.02052855 3.18424606  9.5 2.0669806 3.632725  9.5 1.04967844 3.90746784  10 5.21972132 0.958802223  10 4.62159061 1.82634306  10 3.88091111 2.5758636  10 3.02052855 3.18424606  10 2.0669806 3.632725  10 1.04967844 3.90746784  10.5 5.21972132 0.958802223  10.5 4.62159061 1.82634306  10.5 3.88091111 2.5758636  10.5 3.02052855 3.18424606  10.5 2.0669806 3.632725  10.5 1.04967844 3.90746784  11 5.21972132 0.958802223  11 4.62159061 1.82634306  11 3.88091111 2.5758636  11 3.02052855 3.18424606  11 2.0669806 3.632725  11 1.04967844 3.90746784  11.5 5.21972132 0.958802223  11.5 4.62159061 1.82634306  11.5 3.88091111 2.5758636  11.5 3.02052855 3.18424606  11.5 2.0669806 3.632725  11.5 1.04967844 3.90746784  12 5.21972132 0.958802223  12 4.62159061 1.82634306  12 3.88091111 2.5758636  12 3.02052855 3.18424606  12 2.0669806 3.632725  12 1.04967844 3.90746784  12.5 5.21972132 0.958802223  12.5 4.62159061 1.82634306  12.5 3.88091111 2.5758636  12.5 3.02052855 3.18424606  12.5 2.0669806 3.632725  12.5 1.04967844 3.90746784  13 5.21972132 0.958802223  13 4.62159061 1.82634306  13 3.88091111 2.5758636  13 3.02052855 3.18424606  13 2.0669806 3.632725  13 1.04967844 3.90746784  13.5 5.21972132 0.958802223  13.5 4.62159061 1.82634306  13.5 3.88091111 2.5758636  13.5 3.02052855 3.18424606  13.5 2.0669806 3.632725  13.5 1.04967844 3.90746784  14 5.21972132 0.958802223  14 4.62159061 1.82634306  14 3.88091111 2.5758636  14 3.02052855 3.18424606  14 2.0669806 3.632725  14 1.04967844 3.90746784  14.5 5.21972132 0.958802223  14.5 4.62159061 1.82634306  14.5 3.88091111 2.5758636  14.5 3.02052855 3.18424606  14.5 2.0669806 3.632725  14.5 1.04967844 3.90746784  15 5.21972132 0.958802223  15 4.62159061 1.82634306  15 3.88091111 2.5758636  15 3.02052855 3.18424606  15 2.0669806 3.632725  15 1.04967844 3.90746784  15.5 5.21972132 0.958802223  15.5 4.62159061 1.82634306  15.5 3.88091111 2.5758636  15.5 3.02052855 3.18424606  15.5 2.0669806 3.632725  15.5 1.04967844 3.90746784  16 5.21972132 0.958802223  16 4.62159061 1.82634306  16 3.88091111 2.5758636  16 3.02052855 3.18424606  16 2.0669806 3.632725  16 1.04967844 3.90746784  16.5 5.21972132 0.958802223  16.5 4.62159061 1.82634306  16.5 3.88091111 2.5758636  16.5 3.02052855 3.18424606  16.5 2.0669806 3.632725  16.5 1.04967844 3.90746784  17 5.21972132 0.958802223  17 4.62159061 1.82634306  17 3.88091111 2.5758636  17 3.02052855 3.18424606  17 2.0669806 3.632725  17 1.04967844 3.90746784  17.5 5.21972132 0.958802223  17.5 4.62159061 1.82634306  17.5 3.88091111 2.5758636  17.5 3.02052855 3.18424606  17.
[...]
<PointData  Vectors="f_261141-0"> 
<DataArray  type="Float64"  Name="f_261141-0"  NumberOfComponents="3" format="ascii">0.0000000000000000e+00 0.0000000000000000e+00 0.0000000000000000e+00  0.0000000000000000e+00 0.0000000000000000e+00 5.6687961458001768e-01  0.0000000000000000e+00 9.2337567064238801e-01 0.0000000000000000e+00  7.2515876892466711e+00 0.0000000000000000e+00 4.2382535713778502e+00  8.0722446243201738e+00 8.0547718880709407e-01 3.9666858039096038e+00  7.9183479739281140e+00 0.0000000000000000e+00 3.8500065890193560e+00  0.0000000000000000e+00 0.0000000000000000e+00 1.5686431353375144e-01  0.0000000000000000e+00 0.0000000000000000e+00 2.9929095503172581e-01  0.0000000000000000e+00 0.0000000000000000e+00 4.1610759949273790e-01  0.0000000000000000e+00 1.3314187188898396e-01 5.6775381664115865e-01  0.0000000000000000e+00 2.8314393514453257e-01 5.5752529905247949e-01  0.0000000000000000e+00 4.3680531915904802e-01 5.1094667696572005e-01  0.0000000000000000e+00 5.8052285564812733e-01 4.2531469398429328e-01  0.0000000000000000e+00 7.3505678872812941e-01 3.0736944149831408e-01  0.0000000000000000e+00 8.6291411682286157e-01 1.6972594587571013e-01  0.0000000000000000e+00 7.6924755077839946e-01 0.0000000000000000e+00  0.0000000000000000e+00 5.9976215997756877e-01 0.0000000000000000e+00  0.0000000000000000e+00 4.2360092815411238e-01 0.0000000000000000e+00  0.0000000000000000e+00 2.6930885405850485e-01 0.0000000000000000e+00  0.0000000000000000e+00 1.3252375409636688e-01 0.0000000000000000e+00  7.5091334299516574e-02 0.0000000000000000e+00 5.7110767701954079e-01  1.4654472507968094e-01 0.0000000000000000e+00 5.7103633378748542e-01  2.2136953993662764e-01 0.0000000000000000e+00 5.7537248295849397e-01  2.9855175995554578e-01 0.0000000000000000e+00 5.7704830371254745e-01  3.7301320272084848e-01 0.0000000000000000e+00 5.8430076306458667e-01  4.5051649855538750e-01 0.0000000000000000e+00 5.8464003464764569e-01  5.2489554951496764e-01 0.0000000000000000e+00 5.9545235068681979e-01  6.0236017491102689e-01 0.0000000000000000e+00 5.9565061505040950e-01  6.7693561767692267e-01 0.0000000000000000e+00 6.0996143457845065e-01  7.5151286506082382e-01 0.0000000000000000e+00 6.1671471756027751e-01  8.2551888511371685e-01 0.0000000000000000e+00 6.3129179250804246e-01  9.0250699738974915e-01 0.0000000000000000e+00 6.3191905320724207e-01  9.7822380237435969e-01 0.0000000000000000e+00 6.4196128621079473e-01  1.0586165877400955e+00 0.0000000000000000e+00 6.4984760200879599e-01  1.1326467545363439e+00 0.0000000000000000e+00 6.6785646251441844e-01  1.2092036450102370e+00 0.0000000000000000e+00 6.7317975033072652e-01  1.2837567050236720e+00 0.0000000000000000e+00 6.8070225708524934e-01  1.3570960408671553e+00 0.0000000000000000e+00 6.9678792705928772e-01  1.4348279011258265e+00 0.0000000000000000e+00 7.1028186284072492e-01  1.5106610254006998e+00 0.0000000000000000e+00 7.2307808456781231e-01  1.5844720016796581e+00 0.0000000000000000e+00 7.4300263804450883e-01  1.6633013418488642e+00 0.0000000000000000e+00 7.5887318099643541e-01  1.7406679041162700e+00 0.0000000000000000e+00 7.7569257128815128e-01  1.8161794548167323e+00 0.0000000000000000e+00 7.8707379144282086e-01  1.8890260776065120e+00 0.0000000000000000e+00 8.0973822233707926e-01  1.9645486707350328e+00 0.0000000000000000e+00 8.2626873036165949e-01  2.0393218308744627e+00 0.0000000000000000e+00 8.4637487030170910e-01  2.1148932767568214e+00 0.0000000000000000e+00 8.6959774335318651e-01  2.1891882351572090e+00 0.0000000000000000e+00 8.8548763406974129e-01  2.2655634807255964e+00 0.0000000000000000e+00 9.1008479497156436e-01  2.3396852057168549e+00 0.0000000000000000e+00 9.3397576311472041e-01  2.4185488152716368e+00 0.0000000000000000e+00 9.5643109319694930e-01  2.4911229995830477e+00 0.0000000000000000e+00 9.8709391316796036e-01  2.5681728028569490e+00 0.0000000000000000e+00 1.0050723619383151e+00  2.6430571446233939e+00 0.0000000000000000e+00 1.0307381698541980e+00  2.7188775804928444e+00 0.0000000000000000e+00 1.0559612976855390e+00  2.7912073172673484e+00 0.0000000000000000e+00 1.0854095691217067e+00  2.8638049875052469e+00 0.0000000000000000e+00 1.1150219109689010e+00  2.9409523291826525e+00 0.0000000000000000e+00 1.1393721317292671e+00  3.0137759019204307e+00 0.0000000000000000e+00 1.1723225392510879e+00  3.0885148844399914e+00 0.0000000000000000e+00 1.2078016546552310e+00  3.1651319254848378e+00 0.0000000000000000e+00 1.2333125645416678e+00  3.2359391324005307e+00 0.0000000000000000e+00 1.2686313274633307e+00  3.3147960305968440e+00 0.0000000000000000e+00 1.2947842455109706e+00  3.3884531669926305e+00 0.0000000000000000e+00 1.3308149566891800e+00  3.4647529570767981e+00 0.0000000000000000e+00 1.3669807995720091e+00  3.5383330763024285e+00 0.0000000000000000e+00 1.4030654418493593e+00  3.6116589627988973e+00 0.0000000000000000e+00 1.4371732129289421e+00  3.6858299973747082e+00 0.0000000000000000e+00 1.4760028100986220e+00  3.7612525529087555e+00 0.0000000000000000e+00 1.5106527484289334e+00  3.8386105669406589e+00 0.0000000000000000e+00 1.5498637572247620e+00  3.9095531356249364e+00 0.0000000000000000e+00 1.5932262120406686e+00  3.9846641301239401e+00 0.0000000000000000e+00 1.6288597926310846e+00  4.0551833967874069e+00 0.0000000000000000e+00 1.6794535769359729e+00  4.1291338988344490e+00 0.0000000000000000e+00 1.7161865801780658e+00  4.2044243517930164e+00 0.0000000000000000e+00 1.7539066827685414e+00  4.2811632214003961e+00 0.0000000000000000e+00 1.7972276423780851e+00  4.3553954422859338e+00 0.0000000000000000e+00 1.8445706584983999e+00  4.4282749807352957e+00 0.0000000000000000e+00 1.8947331576548103e+00  4.4999784948837096e+00 0.0000000000000000e+00 1.9404132211528977e+00  4.5762756963910753e+00 0.0000000000000000e+00 1.9813895479372061e+00  4.6493737024776802e+00 0.0000000000000000e+00 2.0335984178861048e+00  4.7236458570528601e+00 0.0000000000000000e+00 2.0750119390236290e+00  4.8001063440119278e+00 0.0000000000000000e+00 2.1223169478524544e+00  4.8728131837798605e+00 0.0000000000000000e+00 2.1740873198898250e+00  4.9461623069411615e+00 0.0000000000000000e+00 2.2198351971869732e+00  5.0219445396907583e+00 0.0000000000000000e+00 2.2721305254272548e+00  5.0930741109011395e+00 0.0000000000000000e+00 2.3252354628263077e+00  5.1647287303803209e+00 0.0000000000000000e+00 2.3754126702246459e+00  5.2379611822756127e+00 0.0000000000000000e+00 2.4279937565537604e+00  5.3102726443787889e+00 0.0000000000000000e+00 2.4831943299766674e+00  5.3826222594762081e+00 0.0000000000000000e+00 2.5400428326565221e+00  5.4537231910408792e+00 0.0000000000000000e+00 2.5949821159448692e+00  5.5271856819930374e+00 0.0000000000000000e+00 2.6529750118734761e+00  5.6036091449166605e+00 0.0000000000000000e+00 2.7063140651371107e+00  5.6730837803928758e+00 0.0000000000000000e+00 2.7711976737561796e+00  5.7463345344492724e+00 0.0000000000000000e+00 2.8279432393250632e+00  5.8165316972310439e+00 0.0000000000000000e+00 2.8894454357219064e+00  5.8913190178219184e+00 0.0000000000000000e+00 2.9471000190744343e+00  5.9632680194228591e+00 0.0000000000000000e+00 3.0105352242970134e+00  6.0358383317631770e+00 0.0000000000000000e+00 3.0730692608360211e+00  6.1088404129387150e+00 0.0000000000000000e+00 3.1276339164732208e+00  6.1829204880198532e+00 0.0000000000000000e+00 3.1929604302124286e+00  6.2528535936736924e+00 0.0000000000000000e+00 3.2622660148035023e+00  6.3265015446963782e+00 0.0000000000000000e+00 3.3166926492195534e+00  6.3967700433753523e+00 0.0000000000000000e+00 3.3855803352432163e+00  6.4685002085815286e+00 0.0000000000000000e+00 3.4499004035232543e+00  6.5386416474517466e+00 0.0000000000000000e+00 3.5114643261424048e+00  6.6126895265722965e+00 0.0000000000000000e+00 3.5783084490563102e+00  6.6817508263592851e+00 0.0000000000000000e+00 3.6467159284375654e+00  6.7545721183944156e+00 0.0000000000000000e+00 3.7040940399034725e+00  6.8255023858863808e+00 0.0000000000000000e+00 3.7656155945374330e+00  6.8964176516193589e+00 0.0000000000000000e+00 3.8231408023320275e+00  6.9650559261887919e+00 0.0000000000000000e+00 3.8798332074366453e+00  7.0282428030942521e+00 0.0000000000000000e+00 3.9331132207433930e+00  7.0846182013429146e+00 0.0000000000000000e+00 3.9827791472027561e+00  7.1346047210269496e+00 0.0000000000000000e+00 4.0373769595512643e+00  7.1789077844253777e+00 0.0000000000000000e+00 4.0947865609181351e+00  7.2155455381442213e+00 0.0000000000000000e+00 4.1594272374886989e+00  7.2800454363720455e+00 7.6098691941253432e-02 4.2311327470665621e+00  7.3464693425770164e+00 1.6879142780122572e-01 4.2361450620331773e+00  7.4371177269407962e+00 2.7233157781140183e-01 4.2399154147472951e+00  7.5562672111326847e+00 3.9709688753970313e-01 4.2310094995452259e+00  7.7211415964644807e+00 5.3984673020151097e-01 4.1947933488442013e+00  7.9118638760893685e+00 6.9167216736207360e-01 4.0965858389164769e+00  8.0011091788436914e+00 8.2215909688418165e-01 3.8854894970152496e+00  7.9267152896717619e+00 8.4406582044548339e-01 3.7983103548798840e+00  7.8525999836828042e+00 8.6228177504693504e-01 3.7100195581387942e+00  7.7730590898332981e+00 8.7610695168663844e-01 3.6256111110840465e+00  7.6940919654987185e+00 8.8982157868891365e-01 3.5394387088588370e+00  7.6128761855491769e+00 9.0457446451102186e-01 3.4501232290844888e+00  7.5291197767326068e+00 9.0775977829082843e-01 3.3647350800363545e+00  7.4421838110916463e+00 9.1095203275078607e-01 3.2845258290509198e+00  7.3582115391589582e+00 9.1506355680167772e-01 3.2025974188591850e+00  7.2717831287217427e+00 9.1569400479183827e-01 3.1261857919850549e+00  7.1877964987164349e+00 9.1793877378202193e-01 3.0480612147238744e+00  7.1050042923365133e+00 9.2364384210837036e-01 2.9713839982578589e+00  7.0226664507945769e+00 9.2479497144400102e-01 2.9024342608094593e+00  6.9408010011611854e+00 9.2431983293638909e-01 2.8324825540984309e+00  6.8623376009790533e+00 9.2210578772664142e-01 2.7569649193162298e+00  6.7797669846936284e+00 9.1738445978569472e-01 2.6868408069124023e+00  6.7014200804689423e+00 9.1728467027943694e-01 2.6280680947928001e+00  6.6215533994369764e+00 9.2273614546947047e-01 2.5680300818590873e+00  6.5438738155627174e+00 9.2691000825302616e-01 2.5033052376050136e+00  6.4652501350323863e+00 9.2792224478721708e-01 2.4395058035724793e+00  6.3854385202013377e+00 9.2681931692961705e-01 2.3767714205364805e+00  6.3032625690117996e+00 9.2396664535519368e-01 2.3161708892768016e+00  6.2229737254125812e+00 9.2442025899346703e-01 2.2514918433222548e+00  6.1424887089967246e+00 9.1757136634151737e-01 2.1902390890701047e+00  6.0647387351655579e+00 9.1812982818387945e-01 2.1243377548516107e+00  5.9849779882066345e+00 9.1122946078673950e-01 2.0658369639599892e+00  5.9042814793315674e+00 9.1139100614318935e-01 2.0077736704808418e+00  5.8250458921291992e+00 9.1331148494525061e-01 1.9473872375475243e+00  5.7467997312718184e+00 9.1277862724099057e-01 1.8924449450705481e+00  5.6689898676676407e+00 9.1385084210205725e-01 1.8370296056941129e+00  5.5886300505227418e+00 9.1223870285947195e-01 1.7838459565841345e+00  5.5092972228227222e+00 9.0956180046969404e-01 1.7300567678973480e+00  5.4291541739672455e+00 9.0685773535409531e-01 1.6779877293964709e+00  5.3495897598109003e+00 9.0758484927743299e-01 1.6247136012981893e+00  5.2703839150669785e+00 9.0771304415394904e-01 1.5745430632241861e+00  5.1916998028214385e+00 9.0858222536031663e-01 1.5229507048889928e+00  5.1127438513008006e+00 9.1141734755342108e-01 1.4708223053247158e+00  5.0316618391639425e+00 9.1215712310576769e-01 1.4226939072654918e+00  4.9507430454246411e+00 9.1191699891378009e-01 1.3751395971244409e+00  4.8716560328948022e+00 9.1024370724499204e-01 1.3270053898705823e+00  4.7912356073431850e+00 9.0910097942020218e-01 1.2789589791969198e+00  4.7106092085685791e+00 9.0853328173843806e-01 1.2347459068145028e+00  4.6291353956407848e+00 9.0312239532562211e-01 1.1938505207423689e+00  4.5500434833938836e+00 9.0368719463994351e-01 1.1468701243365866e+00  4.4718372739398689e+00 9.0661306494582461e-01 1.1021823258149304e+00  4.3924094086344940e+00 9.0836798651759187e-01 1.0632491771170449e+00  4.3131126244430487e+00 9.1272864663012310e-01 1.0232016701509821e+00  4.2323764030750981e+00 9.1170222256044409e-01 9.8523241070683987e-01  4.1505799335387321e+00 9.0774433206007765e-01 9.4734822596014889e-01  4.0682271691899068e+00 9.0884075867641656e-01 9.0809531751353678e-01  3.9861014198660571e+00 9.0725416577876905e-01 8.7168137703346416e-01  3.9052720247374424e+00 9.1426289907315461e-01 8.2799233382792181e-01  3.8250606981330164e+00 9.0909855198971534e-01 7.9585476738256722e-01  3.7441080883477009e+00 9.1170986470916016e-01 7.5187478839246125e-01  3.6648066164330975e+00 9.0714992247116932e-01 7.1277256590033244e-01  3.5814879278602008e+00 9.0627773990441274e-01 6.8143794838269212e-01  3.4989321563793379e+00 9.0812906753353517e-01 6.5225253874383182e-01  3.4189800658219967e+00 9.1090347171028130e-01 6.1853641605955023e-01  3.3377039732559828e+00 9.1116005897770880e-01 5.8817991283398419e-01  3.2582612057362330e+00 9.1095422529184300e-01 5.5624316956018827e-01  3.1759032571440837e+00 9.1224824831046591e-01 5.2650882357032580e-01  3.0947566777676743e+00 9.1007383770946881e-01 4.9788906181977816e-01  3.0117313155670087e+00 9.1276348650622163e-01 4.7286668335402865e-01  2.9329877581956589e+00 9.1315041118032270e-01 4.4418360734547296e-01  2.8516009357819798e+00 9.1312813901840262e-01 4.2218010839062448e-01  2.7686886633348129e+00 9.0831569848475469e-01 4.0353518219907425e-01  2.6879188815512256e+00 9.1311014951477154e-01 3.7412969147671349e-01  2.6081615525622124e+00 9.1389598246680881e-01 3.4717257698172027e-01  2.5281360018884738e+00 9.1120732214901989e-01 3.2505225316477659e-01  2.4472625014169398e+00 9.1314767406085917e-01 3.0059795044259946e-01  2.3648716554421010e+00 9.1113476542590655e-01 2.8035342252189821e-01  2.2827475132442383e+00 9.1358018223094373e-01 2.5666963913195068e-01  2.2017200483989012e+00 9.1358964726401903e-01 2.3350659972481219e-01  2.1187338540856913e+00 9.1086470115008378e-01 2.1402600097815197e-01  2.0368783404364001e+00 9.1042887691416596e-01 1.9331637456299436e-01  1.9543368047191847e+00 9.1047636365577223e-01 1.7609588736155560e-01  1.8731268577071953e+00 9.1328709318882950e-01 1.5935505875876008e-01  1.7943415825507893e+00 9.1591659406966297e-01 1.4296440747528788e-01  1.7124697762979095e+00 9.1832649663135091e-01 1.2833743345465373e-01  1.6294576736424460e+00 9.1346987853346939e-01 1.1883261040867217e-01  1.5485626634002023e+00 9.1572480833773917e-01 1.0274616433846738e-01  1.4664290522165682e+00 9.1534505448621040e-01 9.1877742022653724e-02  1.3856205699633650e+00 9.1074183740101955e-01 8.1837172342299480e-02  1.3044126878167581e+00 9.1653529462498518e-01 6.5009616279825544e-02  1.2246920810894699e+00 9.1347496684785012e-01 5.0844971698878735e-02  1.1436162947643820e+00 9.1502362078483324e-01 3.9388484938217061e-02  1.0603946894991563e+00 9.1030985068704318e-01 3.4723798256278623e-02  9.7890421356567225e-01 9.1378401125609043e-01 2.2279015793275039e-02  8.9693120132695792e-01 9.1262167396268268e-01 1.5659782409011364e-02  8.1433056081560562e-01 9.1550334967223679e-01 9.8115101621216692e-03  7.3316237353749358e-01 9.1637125219096061e-01 2.0284725196301943e-03  6.5242986532655300e-01 9.1833851832862723e-01 -2.2130218810473097e-03  5.7115644055671422e-01 9.1981418975301188e-01 -5.4856760090472370e-03  4.8741875475260904e-01 9.2246588683003927e-01 -2.4886106369569638e-03  4.0601224668139180e-01 9.2338305470948501e-01 -3.0287965432204260e-04  3.2491727671785425e-01 9.2630722600049564e-01 -1.6714858473358910e-04  2.4273933926658284e-01 9.2141814817393108e-01 1.9310107764234858e-03  1.6102120054558761e-01 9.2205894548841305e-01 0.0000000000000000e+00  7.8685055040252763e-02 9.1820956643868723e-01 0.0000000000000000e+00  8.0395924425085834e+00 6.4685910395535851e-01 3.9365523893451195e+00  8.0104505614782298e+00 5.0696324815304850e-01 3.9042669107756489e+00  7.9789468917486639e+00 3.6727677795614361e-01 3.8781416094512720e+00  7.9621903265135536e+00 2.4334600175024992e-01 3.8725547924487684e+00  7.9364939313580587e+00 1.1501713855926103e-01 3.8540003554789344e+00  7.8482925857541375e+00 0.0000000000000000e+00 3.7554570530110096e+00  7.7811940035274612e+00 0.0000000000000000e+00 3.6789340814173075e+00  7.7122803265297692e+00 0.0000000000000000e+00 3.5971062057893723e+00  7.6408092576936006e+00 0.0000000000000000e+00 3.5191103861538586e+00  7.5669510182264075e+00 0.0000000000000000e+00 3.4487909555487133e+00  7.4937134202745597e+00 0.0000000000000000e+00 3.3793203831102221e+00  7.4195057088797016e+00 0.0000000000000000e+00 3.3101198468509310e+00  7.3475257724601670e+00 0.0000000000000000e+00 3.2414148451408051e+00  7.2747319219009885e+00 0.0000000000000000e+00 3.1710941600743778e+00  7.1977289669448625e+00 0.0000000000000000e+00 3.1108105361987031e+00  7.1249735347636376e+00 0.0000000000000000e+00 3.0457211387196592e+00  7.0513897005840640e+00 0.0000000000000000e+00 2.9775094034185705e+00  6.9772650646604566e+00 0.0000000000000000e+00 2.9119901232265382e+00  6.8985681972334270e+00 0.0000000000000000e+00 2.8525044702271334e+00  6.8235381166207976e+00 0.0000000000000000e+00 2.7888749213915518e+00  6.7496240679555761e+00 0.0000000000000000e+00 2.7243231520899118e+00  6.6751766358790308e+00 0.0000000000000000e+00 2.6596556722212088e+00  6.5992977464942983e+00 0.0000000000000000e+00 2.5956390777547163e+00  6.5220131138853947e+00 0.0000000000000000e+00 2.5347728959005504e+00  6.4476618114402600e+00 0.0000000000000000e+00 2.4744964097763873e+00  6.3690815696099934e+00 0.0000000000000000e+00 2.4140644629004147e+00  6.2888945547973449e+00 0.0000000000000000e+00 2.3599132891661014e+00  6.2104659809389196e+00 0.0000000000000000e+00 2.2990917565819946e+00  6.1315813058478721e+00 0.0000000000000000e+00 2.2421166996162865e+00  6.0547201384097340e+00 0.0000000000000000e+00 2.1819810907281654e+00  5.9772029884601459e+00 0.0000000000000000e+00 2.1237645518611870e+00  5.8991800616385213e+00 0.0000000000000000e+00 2.0630356457316559e+00  5.8175830131610251e+00 0.0000000000000000e+00 2.0108245334170940e+00  5.7370356407288634e+00 0.0000000000000000e+00 1.9535044787177056e+00  5.6562679372054454e+00 0.0000000000000000e+00 1.9005042154115015e+00  5.5776903635255897e+00 0.0000000000000000e+00 1.8472814304070546e+00  5.5016162152984869e+00 0.0000000000000000e+00 1.7934349088823358e+00  5.4252789496710259e+00 0.0000000000000000e+00 1.7364408820137167e+00  5.3455349113956725e+00 0.0000000000000000e+00 1.6845279703521643e+00  5.2647703718260139e+00 0.0000000000000000e+00 1.6335494061424809e+00  5.1850401091552785e+00 0.0000000000000000e+00 1.5853454101729088e+00  5.1050316826024416e+00 0.0000000000000000e+00 1.5356009908174952e+00  5.0259358620886774e+00 0.0000000000000000e+00 1.4889173791197730e+00  4.9449283924793779e+00 0.0000000000000000e+00 1.4438651295558234e+00  4.8648976232331167e+00 0.0000000000000000e+00 1.3944195360084564e+00  4.7842451451158263e+00 0.0000000000000000e+00 1.3497895788917167e+00  4.7069662877803218e+00 0.0000000000000000e+00 1.3007627565892685e+00  4.6241276352025471e+00 0.0000000000000000e+00 1.2567865528978306e+00  4.5442650755478855e+00 0.0000000000000000e+00 1.2133278911478398e+00  4.4649308060909565e+00 0.0000000000000000e+00 1.1696743520726001e+00  4.3835041707102160e+00 0.0000000000000000e+00 1.1291096100280258e+00  4.3013341147626818e+00 0.0000000000000000e+00 1.0903486349587981e+00  4.2241592615923054e+00 0.0000000000000000e+00 1.0468816302666122e+00  4.1407679429841666e+00 0.0000000000000000e+00 1.0095878529098292e+00  4.0613060310284244e+00 0.0000000000000000e+00 9.6780419415089025e-01  3.9814251748507110e+00 0.0000000000000000e+00 9.3082581842854784e-01  3.9016151144290157e+00 0.0000000000000000e+00 8.9307174569993841e-01  3.8221429877007789e+00 0.0000000000000000e+00 8.5665520507970361e-01  3.7427776390891139e+00 0.0000000000000000e+00 8.1856436434072122e-01  3.6617075844172091e+00 0.0000000000000000e+00 7.8074176582957189e