<?xml version="1.0"?>
<VTKFile type="UnstructuredGrid"  version="0.1"  >
<UnstructuredGrid>
<Piece  NumberOfPoints="3069" NumberOfCells="12882">
<Points>
<DataArray  type="Float64"  NumberOfComponents="3"  format="ascii">0 0 0  0 0 4  0 5.65685415 0  50 0 4  50 5.65685415 0  50 0 0  0 0 1  0 0 2  0 0 3  0 1.04967844 3.90746784  0 2.0669806 3.632725  0 3.02052855 3.18424606  0 3.88091111 2.5758636  0 4.62159061 1.82634306  0 5.21972132 0.958802283  0 4.71404505 0  0 3.77123618 0  0 2.82842708 0  0 1.88561809 0  0 0.942809045 0  0.5 0 4  1 0 4  1.5 0 4  2 0 4  2.5 0 4  3 0 4  3.5 0 4  4 0 4  4.5 0 4  5 0 4  5.5 0 4  6 0 4  6.5 0 4  7 0 4  7.5 0 4  8 0 4  8.5 0 4  9 0 4  9.5 0 4  10 0 4  10.5 0 4  11 0 4  11.5 0 4  12 0 4  12.5 0 4  13 0 4  13.5 0 4  14 0 4  14.5 0 4  15 0 4  15.5 0 4  16 0 4  16.5 0 4  17 0 4  17.5 0 4  18 0 4  18.5 0 4  19 0 4  19.5 0 4  20 0 4  20.5 0 4  21 0 4  21.5 0 4  22 0 4  22.5 0 4  23 0 4  23.5 0 4  24 0 4  24.5 0 4  25 0 4  25.5 0 4  26 0 4  26.5 0 4  27 0 4  27.5 0 4  28 0 4  28.5 0 4  29 0 4  29.5 0 4  30 0 4  30.5 0 4  31 0 4  31.5 0 4  32 0 4  32.5 0 4  33 0 4  33.5 0 4  34 0 4  34.5 0 4  35 0 4  35.5 0 4  36 0 4  36.5 0 4  37 0 4  37.5 0 4  38 0 4  38.5 0 4  39 0 4  39.5 0 4  40 0 4  40.5 0 4  41 0 4  41.5 0 4  42 0 4  42.5 0 4  43 0 4  43.5 0 4  44 0 4  44.5 0 4  45 0 4  45.5 0 4  46 0 4  46.5 0 4  47 0 4  47.5 0 4  48 0 4  48.5 0 4  49 0 4  49.5 0 4  50 1.04967844 3.90746784  50 2.0669806 3.632725  50 3.02052855 3.18424606  50 3.88091111 2.5758636  50 4.62159061 1.82634306  50 5.21972132 0.958802283  49.5 5.65685415 0  49 5.65685415 0  48.5 5.65685415 0  48 5.65685415 0  47.5 5.65685415 0  47 5.65685415 0  46.5 5.65685415 0  46 5.65685415 0  45.5 5.65685415 0  45 5.65685415 0  44.5 5.65685415 0  44 5.65685415 0  43.5 5.65685415 0  43 5.65685415 0  42.5 5.65685415 0  42 5.65685415 0  41.5 5.65685415 0  41 5.65685415 0  40.5 5.65685415 0  40 5.65685415 0  39.5 5.65685415 0  39 5.65685415 0  38.5 5.65685415 0  38 5.65685415 0  37.5 5.65685415 0  37 5.65685415 0  36.5 5.65685415 0  36 5.65685415 0  35.5 5.65685415 0  35 5.65685415 0  34.5 5.65685415 0  34 5.65685415 0  33.5 5.65685415 0  33 5.65685415 0  32.5 5.65685415 0  32 5.65685415 0  31.5 5.65685415 0  31 5.65685415 0  30.5 5.65685415 0  30 5.65685415 0  29.5 5.65685415 0  29 5.65685415 0  28.5 5.65685415 0  28 5.65685415 0  27.5 5.65685415 0  27 5.65685415 0  26.5 5.65685415 0  26 5.65685415 0  25.5 5.65685415 0  25 5.65685415 0  24.5 5.65685415 0  24 5.65685415 0  23.5 5.65685415 0  23 5.65685415 0  22.5 5.65685415 0  22 5.65685415 0  21.5 5.65685415 0  21 5.65685415 0  20.5 5.65685415 0  20 5.65685415 0  19.5 5.65685415 0  19 5.65685415 0  18.5 5.65685415 0  18 5.65685415 0  17.5 5.65685415 0  17 5.65685415 0  16.5 5.65685415 0  16 5.65685415 0  15.5 5.65685415 0  15 5.65685415 0  14.5 5.65685415 0  14 5.65685415 0  13.5 5.65685415 0  13 5.65685415 0  12.5 5.65685415 0  12 5.65685415 0  11.5 5.65685415 0  11 5.65685415 0  10.5 5.65685415 0  10 5.65685415 0  9.5 5.65685415 0  9 5.65685415 0  8.5 5.65685415 0  8 5.65685415 0  7.5 5.65685415 0  7 5.65685415 0  6.5 5.65685415 0  6 5.65685415 0  5.5 5.65685415 0  5 5.65685415 0  4.5 5.65685415 0  4 5.65685415 0  3.5 5.65685415 0  3 5.65685415 0  2.5 5.65685415 0  2 5.65685415 0  1.5 5.65685415 0  1 5.65685415 0  0.5 5.65685415 0  50 4.71404505 0  50 3.77123618 0  50 2.82842708 0  50 1.88561809 0  50 0.942809045 0  49.5 0 0  49 0 0  48.5 0 0  48 0 0  47.5 0 0  47 0 0  46.5 0 0  46 0 0  45.5 0 0  45 0 0  44.5 0 0  44 0 0  43.5 0 0  43 0 0  42.5 0 0  42 0 0  41.5 0 0  41 0 0  40.5 0 0  40 0 0  39.5 0 0  39 0 0  38.5 0 0  38 0 0  37.5 0 0  37 0 0  36.5 0 0  36 0 0  35.5 0 0  35 0 0  34.5 0 0  34 0 0  33.5 0 0  33 0 0  32.5 0 0  32 0 0  31.5 0 0  31 0 0  30.5 0 0  30 0 0  29.5 0 0  29 0 0  28.5 0 0  28 0 0  27.5 0 0  27 0 0  26.5 0 0  26 0 0  25.5 0 0  25 0 0  24.5 0 0  24 0 0  23.5 0 0  23 0 0  22.5 0 0  22 0 0  21.5 0 0  21 0 0  20.5 0 0  20 0 0  19.5 0 0  19 0 0  18.5 0 0  18 0 0  17.5 0 0  17 0 0  16.5 0 0  16 0 0  15.5 0 0  15 0 0  14.5 0 0  14 0 0  13.5 0 0  13 0 0  12.5 0 0  12 0 0  11.5 0 0  11 0 0  10.5 0 0  10 0 0  9.5 0 0  9 0 0  8.5 0 0  8 0 0  7.5 0 0  7 0 0  6.5 0 0  6 0 0  5.5 0 0  5 0 0  4.5 0 0  4 0 0  3.5 0 0  3 0 0  2.5 0 0  2 0 0  1.5 0 0  1 0 0  0.5 0 0  50 0 1  50 0 2  50 0 3  0 2.33524275 0.893602192  0 2.87561393 1.93323028  0 4.2367816 0.876864135  0 2.00050235 2.65534091  0 0.981494486 2.34323239  0 3.78543234 1.61830366  0 3.30545568 0.887000024  0 0.812916458 1.58408713  0 1.71948838 1.71268857  0 1.28267908 0.8650629520000001  0 1.21973121 3.10775328  0.5 5.21972132 0.958802223  0.5 4.62159061 1.82634306  0.5 3.88091111 2.5758636  0.5 3.02052855 3.18424606  0.5 2.0669806 3.632725  0.5 1.04967844 3.90746784  1 5.21972132 0.958802223  1 4.62159061 1.82634306  1 3.88091111 2.5758636  1 3.02052855 3.18424606  1 2.0669806 3.632725  1 1.04967844 3.90746784  1.5 5.21972132 0.958802223  1.5 4.62159061 1.82634306  1.5 3.88091111 2.5758636  1.5 3.02052855 3.18424606  1.5 2.0669806 3.632725  1.5 1.04967844 3.90746784  2 5.21972132 0.958802223  2 4.62159061 1.82634306  2 3.88091111 2.5758636  2 3.02052855 3.18424606  2 2.0669806 3.632725  2 1.04967844 3.90746784  2.5 5.21972132 0.958802223  2.5 4.62159061 1.82634306  2.5 3.88091111 2.5758636  2.5 3.02052855 3.18424606  2.5 2.0669806 3.632725  2.5 1.04967844 3.90746784  3 5.21972132 0.958802223  3 4.62159061 1.82634306  3 3.88091111 2.5758636  3 3.02052855 3.18424606  3 2.0669806 3.632725  3 1.04967844 3.90746784  3.5 5.21972132 0.958802223  3.5 4.62159061 1.82634306  3.5 3.88091111 2.5758636  3.5 3.02052855 3.18424606  3.5 2.0669806 3.632725  3.5 1.04967844 3.90746784  4 5.21972132 0.958802223  4 4.62159061 1.82634306  4 3.88091111 2.5758636  4 3.02052855 3.18424606  4 2.0669806 3.632725  4 1.04967844 3.90746784  4.5 5.21972132 0.958802223  4.5 4.62159061 1.82634306  4.5 3.88091111 2.5758636  4.5 3.02052855 3.18424606  4.5 2.0669806 3.632725  4.5 1.04967844 3.90746784  5 5.21972132 0.958802223  5 4.62159061 1.82634306  5 3.88091111 2.5758636  5 3.02052855 3.18424606  5 2.0669806 3.632725  5 1.04967844 3.90746784  5.5 5.21972132 0.958802223  5.5 4.62159061 1.82634306  5.5 3.88091111 2.5758636  5.5 3.02052855 3.18424606  5.5 2.0669806 3.632725  5.5 1.04967844 3.90746784  6 5.21972132 0.958802223  6 4.62159061 1.82634306  6 3.88091111 2.5758636  6 3.02052855 3.18424606  6 2.0669806 3.632725  6 1.04967844 3.90746784  6.5 5.21972132 0.958802223  6.5 4.62159061 1.82634306  6.5 3.88091111 2.5758636  6.5 3.02052855 3.18424606  6.5 2.0669806 3.632725  6.5 1.04967844 3.90746784  7 5.21972132 0.958802223  7 4.62159061 1.82634306  7 3.88091111 2.5758636  7 3.02052855 3.18424606  7 2.0669806 3.632725  7 1.04967844 3.90746784  7.5 5.21972132 0.958802223  7.5 4.62159061 1.82634306  7.5 3.88091111 2.5758636  7.5 3.02052855 3.18424606  7.5 2.0669806 3.632725  7.5 1.04967844 3.90746784  8 5.21972132 0.958802223  8 4.62159061 1.82634306  8 3.88091111 2.5758636  8 3.02052855 3.18424606  8 2.0669806 3.632725  8 1.04967844 3.90746784  8.5 5.21972132 0.958802223  8.5 4.62159061 1.82634306  8.5 3.88091111 2.5758636  8.5 3.02052855 3.18424606  8.5 2.0669806 3.632725  8.5 1.04967844 3.90746784  9 5.21972132 0.958802223  9 4.62159061 1.82634306  9 3.88091111 2.5758636  9 3.02052855 3.18424606  9 2.0669806 3.632725  9 1.04967844 3.90746784  9.5 5.21972132 0.958802223  9.5 4.62159061 1.82634306  9.5 3.88091111 2.5758636  9.5 3.02052855 3.18424606  9.5 2.0669806 3.632725  9.5 1.04967844 3.90746784  10 5.21972132 0.958802223  10 4.62159061 1.82634306  10 3.88091111 2.5758636  10 3.02052855 3.18424606  10 2.0669806 3.632725  10 1.04967844 3.90746784  10.5 5.21972132 0.958802223  10.5 4.62159061 1.82634306  10.5 3.88091111 2.5758636  10.5 3.02052855 3.18424606  10.5 2.0669806 3.632725  10.5 1.04967844 3.90746784  11 5.21972132 0.958802223  11 4.62159061 1.82634306  11 3.88091111 2.5758636  11 3.02052855 3.18424606  11 2.0669806 3.632725  11 1.04967844 3.90746784  11.5 5.21972132 0.958802223  11.5 4.62159061 1.82634306  11.5 3.88091111 2.5758636  11.5 3.02052855 3.18424606  11.5 2.0669806 3.632725  11.5 1.04967844 3.90746784  12 5.21972132 0.958802223  12 4.62159061 1.82634306  12 3.88091111 2.5758636  12 3.02052855 3.18424606  12 2.0669806 3.632725  12 1.04967844 3.90746784  12.5 5.21972132 0.958802223  12.5 4.62159061 1.82634306  12.5 3.88091111 2.5758636  12.5 3.02052855 3.18424606  12.5 2.0669806 3.632725  12.5 1.04967844 3.90746784  13 5.21972132 0.958802223  13 4.62159061 1.82634306  13 3.88091111 2.5758636  13 3.02052855 3.18424606  13 2.0669806 3.632725  13 1.04967844 3.90746784  13.5 5.21972132 0.958802223  13.5 4.62159061 1.82634306  13.5 3.88091111 2.5758636  13.5 3.02052855 3.18424606  13.5 2.0669806 3.632725  13.5 1.04967844 3.90746784  14 5.21972132 0.958802223  14 4.62159061 1.82634306  14 3.88091111 2.5758636  14 3.02052855 3.18424606  14 2.0669806 3.632725  14 1.04967844 3.90746784  14.5 5.21972132 0.958802223  14.5 4.62159061 1.82634306  14.5 3.88091111 2.5758636  14.5 3.02052855 3.18424606  14.5 2.0669806 3.632725  14.5 1.04967844 3.90746784  15 5.21972132 0.958802223  15 4.62159061 1.82634306  15 3.88091111 2.5758636  15 3.02052855 3.18424606  15 2.0669806 3.632725  15 1.04967844 3.90746784  15.5 5.21972132 0.958802223  15.5 4.62159061 1.82634306  15.5 3.88091111 2.5758636  15.5 3.02052855 3.18424606  15.5 2.0669806 3.632725  15.5 1.04967844 3.90746784  16 5.21972132 0.958802223  16 4.62159061 1.82634306  16 3.88091111 2.5758636  16 3.02052855 3.18424606  16 2.0669806 3.632725  16 1.04967844 3.90746784  16.5 5.21972132 0.958802223  16.5 4.62159061 1.82634306  16.5 3.88091111 2.5758636  16.5 3.02052855 3.18424606  16.5 2.0669806 3.632725  16.5 1.04967844 3.90746784  17 5.21972132 0.958802223  17 4.62159061 1.82634306  17 3.88091111 2.5758636  17 3.02052855 3.18424606  17 2.0669806 3.632725  17 1.04967844 3.90746784  17.5 5.21972132 0.958802223  17.5 4.62159061 1.82634306  17.5 3.88091111 2.5758636  17.5 3.02052855 3.18424606  17.
[...]
<PointData  Vectors="f_261141-0"> 
<DataArray  type="Float64"  Name="f_261141-0"  NumberOfComponents="3" format="ascii">0.0000000000000000e+00 0.0000000000000000e+00 0.0000000000000000e+00  0.0000000000000000e+00 0.0000000000000000e+00 7.3738471385211479e-01  0.0000000000000000e+00 1.0268360379525325e+00 0.0000000000000000e+00  9.2603806500323937e+00 0.0000000000000000e+00 3.5431930422026470e-01  9.0606249103664673e+00 1.0676650194675403e+00 -5.3877230695281886e-01  9.1166984931618540e+00 0.0000000000000000e+00 -4.8003331478252365e-01  0.0000000000000000e+00 0.0000000000000000e+00 1.7971970275099175e-01  0.0000000000000000e+00 0.0000000000000000e+00 3.6682152059344164e-01  0.0000000000000000e+00 0.0000000000000000e+00 5.5613568160633708e-01  0.0000000000000000e+00 1.9782682377762997e-01 7.1839260262100435e-01  0.0000000000000000e+00 3.8248124811726836e-01 6.6241409622645631e-01  0.0000000000000000e+00 5.5554331720313477e-01 5.7897431357602269e-01  0.0000000000000000e+00 7.1054790050503114e-01 4.6705469902664304e-01  0.0000000000000000e+00 8.4337208626037141e-01 3.2922023828325880e-01  0.0000000000000000e+00 9.4995604939815392e-01 1.7254544417881063e-01  0.0000000000000000e+00 8.5766525464144616e-01 0.0000000000000000e+00  0.0000000000000000e+00 6.8769941701965531e-01 0.0000000000000000e+00  0.0000000000000000e+00 5.1756955070159105e-01 0.0000000000000000e+00  0.0000000000000000e+00 3.4670026451083402e-01 0.0000000000000000e+00  0.0000000000000000e+00 1.7410058392196379e-01 0.0000000000000000e+00  9.1497439020359644e-02 0.0000000000000000e+00 7.3767905464650352e-01  1.8333488945842913e-01 0.0000000000000000e+00 7.3776192169614740e-01  2.7515795625119671e-01 0.0000000000000000e+00 7.3798380632306626e-01  3.6723599505672777e-01 0.0000000000000000e+00 7.3740938144917156e-01  4.5835002962545535e-01 0.0000000000000000e+00 7.3839682748857871e-01  5.5063814853455251e-01 0.0000000000000000e+00 7.3698126155847843e-01  6.4189957957332122e-01 0.0000000000000000e+00 7.3668646782697111e-01  7.3419153881319743e-01 0.0000000000000000e+00 7.3499676208161557e-01  8.2593169964416036e-01 0.0000000000000000e+00 7.3362742959263272e-01  9.1758441583387873e-01 0.0000000000000000e+00 7.3192536734754188e-01  1.0090181420954372e+00 0.0000000000000000e+00 7.3116889106651262e-01  1.1007334466874183e+00 0.0000000000000000e+00 7.3096408077660047e-01  1.1925272038590564e+00 0.0000000000000000e+00 7.3006795965153215e-01  1.2849429867805939e+00 0.0000000000000000e+00 7.2766461059365350e-01  1.3760173740457637e+00 0.0000000000000000e+00 7.2716785463109590e-01  1.4683789516636583e+00 0.0000000000000000e+00 7.2533696494672528e-01  1.5600808003019406e+00 0.0000000000000000e+00 7.2364665470160505e-01  1.6518823380641263e+00 0.0000000000000000e+00 7.2164303293595888e-01  1.7433585009394104e+00 0.0000000000000000e+00 7.2046713366226744e-01  1.8348957740369278e+00 0.0000000000000000e+00 7.1898005076864346e-01  1.9264864179591032e+00 0.0000000000000000e+00 7.1822321749250628e-01  2.0179986116894892e+00 0.0000000000000000e+00 7.1554394773792085e-01  2.1099026763535980e+00 0.0000000000000000e+00 7.1406624700699406e-01  2.2017072182266011e+00 0.0000000000000000e+00 7.1158148552936029e-01  2.2930743216267562e+00 0.0000000000000000e+00 7.1022547978593420e-01  2.3852606726177914e+00 0.0000000000000000e+00 7.0704190434624725e-01  2.4771781823434238e+00 0.0000000000000000e+00 7.0413616518951094e-01  2.5685425059228519e+00 0.0000000000000000e+00 7.0238213055987953e-01  2.6604747385922001e+00 0.0000000000000000e+00 6.9948362203624037e-01  2.7526000389118854e+00 0.0000000000000000e+00 6.9557176275476962e-01  2.8430540114691580e+00 0.0000000000000000e+00 6.9554776712185862e-01  2.9344395800369840e+00 0.0000000000000000e+00 6.9181352229702353e-01  3.0263425937667376e+00 0.0000000000000000e+00 6.8828039053754975e-01  3.1182678291485120e+00 0.0000000000000000e+00 6.8475824427881216e-01  3.2104768036224849e+00 0.0000000000000000e+00 6.8116636104376616e-01  3.3023988109569600e+00 0.0000000000000000e+00 6.7803883963950662e-01  3.3944905011385091e+00 0.0000000000000000e+00 6.7467722518637796e-01  3.4859919678855467e+00 0.0000000000000000e+00 6.7220088497045849e-01  3.5780904158889277e+00 0.0000000000000000e+00 6.6761565068561968e-01  3.6696529836028251e+00 0.0000000000000000e+00 6.6454708728949996e-01  3.7607087395622285e+00 0.0000000000000000e+00 6.6174167928218619e-01  3.8529168963098517e+00 0.0000000000000000e+00 6.5805122274177130e-01  3.9442266564630093e+00 0.0000000000000000e+00 6.5444334392838377e-01  4.0367609226831860e+00 0.0000000000000000e+00 6.4860928177796850e-01  4.1278730874527296e+00 0.0000000000000000e+00 6.4514351736249376e-01  4.2194333338097980e+00 0.0000000000000000e+00 6.4075851105041093e-01  4.3110596628673932e+00 0.0000000000000000e+00 6.3726426211036347e-01  4.4030372218122382e+00 0.0000000000000000e+00 6.3251945373263485e-01  4.4947022572469164e+00 0.0000000000000000e+00 6.2832848703916944e-01  4.5866590841847374e+00 0.0000000000000000e+00 6.2350839857505591e-01  4.6786080735850559e+00 0.0000000000000000e+00 6.1825449877936023e-01  4.7699798308706711e+00 0.0000000000000000e+00 6.1437187468141818e-01  4.8620705861255544e+00 0.0000000000000000e+00 6.0847670937740528e-01  4.9533681184856322e+00 0.0000000000000000e+00 6.0439183777897310e-01  5.0451748974235961e+00 0.0000000000000000e+00 5.9897977563592342e-01  5.1375212559639181e+00 0.0000000000000000e+00 5.9380150020402422e-01  5.2291422129091165e+00 0.0000000000000000e+00 5.8825334914299410e-01  5.3205614441086793e+00 0.0000000000000000e+00 5.8320704812927937e-01  5.4122281543041728e+00 0.0000000000000000e+00 5.7856470120647385e-01  5.5044020162582781e+00 0.0000000000000000e+00 5.7208068920307775e-01  5.5961340090996705e+00 0.0000000000000000e+00 5.6548431752573469e-01  5.6875045237977844e+00 0.0000000000000000e+00 5.6077567622647750e-01  5.7794019654044648e+00 0.0000000000000000e+00 5.5439989343911211e-01  5.8712279135337795e+00 0.0000000000000000e+00 5.4817444691325568e-01  5.9625503886245683e+00 0.0000000000000000e+00 5.4356104951529161e-01  6.0547702203021023e+00 0.0000000000000000e+00 5.3689737273514471e-01  6.1466754506900756e+00 0.0000000000000000e+00 5.3088016267596749e-01  6.2380347752116183e+00 0.0000000000000000e+00 5.2475371617752331e-01  6.3300453460710422e+00 0.0000000000000000e+00 5.1768690926985139e-01  6.4215242364823482e+00 0.0000000000000000e+00 5.1097343911494453e-01  6.5130639351833821e+00 0.0000000000000000e+00 5.0485620712596113e-01  6.6047308481011964e+00 0.0000000000000000e+00 4.9757520340247591e-01  6.6968569185499103e+00 0.0000000000000000e+00 4.8976858072162388e-01  6.7886417378055555e+00 0.0000000000000000e+00 4.8278089632781396e-01  6.8804785508620485e+00 0.0000000000000000e+00 4.7598295857027606e-01  6.9717274764098498e+00 0.0000000000000000e+00 4.6920962084698248e-01  7.0637672181929974e+00 0.0000000000000000e+00 4.6164212442869484e-01  7.1552051440719593e+00 0.0000000000000000e+00 4.5486560696101574e-01  7.2475299932440933e+00 0.0000000000000000e+00 4.4600941182716269e-01  7.3390705159584684e+00 0.0000000000000000e+00 4.3868680612405897e-01  7.4304413613895326e+00 0.0000000000000000e+00 4.3171811773176638e-01  7.5226967081091409e+00 0.0000000000000000e+00 4.2354395875899953e-01  7.6146060827191295e+00 0.0000000000000000e+00 4.1541007589843898e-01  7.7055199734120743e+00 0.0000000000000000e+00 4.0916475927845686e-01  7.7976149305120837e+00 0.0000000000000000e+00 4.0039152718280530e-01  7.8888347316870897e+00 0.0000000000000000e+00 3.9364410814751677e-01  7.9801288782927653e+00 0.0000000000000000e+00 3.8749585633004685e-01  8.0718712827379342e+00 0.0000000000000000e+00 3.7973165783926394e-01  8.1637058791152217e+00 0.0000000000000000e+00 3.7213002862326344e-01  8.2548380289518732e+00 0.0000000000000000e+00 3.6736333052650572e-01  8.3473338987097616e+00 0.0000000000000000e+00 3.6017822438741287e-01  8.4383763248508803e+00 0.0000000000000000e+00 3.5709816397192573e-01  8.5311482408498343e+00 0.0000000000000000e+00 3.5229039280233215e-01  8.6239831670335203e+00 0.0000000000000000e+00 3.5366115060836251e-01  8.7188954701033730e+00 0.0000000000000000e+00 3.5681869381907422e-01  8.8178855223436905e+00 0.0000000000000000e+00 3.6376332786594301e-01  8.9218880505173495e+00 0.0000000000000000e+00 3.7183978573728649e-01  9.0315592756862646e+00 0.0000000000000000e+00 3.7316424119027236e-01  9.1459519573338675e+00 0.0000000000000000e+00 3.6656363813608761e-01  9.2475838519989626e+00 2.4202996228808585e-01 3.3254971345915119e-01  9.2268943703703439e+00 4.6330041601003974e-01 2.5160048680201386e-01  9.1986226511922755e+00 6.5507821814041034e-01 1.3365027409340030e-01  9.1658349030625779e+00 8.0874924000043147e-01 -1.3425977842883692e-02  9.1309750709104769e+00 9.2979242938473139e-01 -1.7855982663146544e-01  9.0938142624685181e+00 1.0159093045367600e+00 -3.5539159360373862e-01  8.9698883015605464e+00 1.0598925402795905e+00 -5.2345269465731947e-01  8.8794600693465391e+00 1.0531217199074321e+00 -5.0658263636329115e-01  8.7897188495969729e+00 1.0475233982571521e+00 -4.9040756910981598e-01  8.6999142165851318e+00 1.0411842040124895e+00 -4.7357997139350677e-01  8.6111412792460325e+00 1.0359420408988813e+00 -4.5933358693046017e-01  8.5230075722767236e+00 1.0326119826761724e+00 -4.4607910096156334e-01  8.4351153993789687e+00 1.0298962389472990e+00 -4.3302123365010203e-01  8.3471740678204966e+00 1.0284037552891045e+00 -4.2057226820815213e-01  8.2587498379075335e+00 1.0268927611117988e+00 -4.0775839930253704e-01  8.1705924317039482e+00 1.0258562767923600e+00 -3.9603839930223034e-01  8.0819063957908863e+00 1.0251509401543997e+00 -3.8415291872252560e-01  7.9930385117393330e+00 1.0254585526880029e+00 -3.7375864435353767e-01  7.9038034702481230e+00 1.0249961535267291e+00 -3.6330512281854399e-01  7.8143488263440597e+00 1.0246094781699133e+00 -3.5320619447471524e-01  7.7249463044039688e+00 1.0248309160094047e+00 -3.4410108894773977e-01  7.6350625750494236e+00 1.0248842252460884e+00 -3.3438277134131528e-01  7.5453406127339484e+00 1.0253251830204513e+00 -3.2488673961652498e-01  7.4553245072431178e+00 1.0259107722614131e+00 -3.1598688538071784e-01  7.3652894608549078e+00 1.0261689939588980e+00 -3.0737253753535232e-01  7.2750112895611059e+00 1.0267764339212262e+00 -2.9882043663608721e-01  7.1846589355684065e+00 1.0271191282374637e+00 -2.9041408996234030e-01  7.0941611262961413e+00 1.0273502649251178e+00 -2.8210014417567064e-01  7.0035403421681091e+00 1.0277498665052494e+00 -2.7425458450008455e-01  6.9129232681947377e+00 1.0274472099415120e+00 -2.6655512462153225e-01  6.8222724744811725e+00 1.0277863765163617e+00 -2.5928634382978605e-01  6.7315659709288482e+00 1.0279951827925340e+00 -2.5204582228098837e-01  6.6407394437804710e+00 1.0281745819928114e+00 -2.4495856030686741e-01  6.5498971272107802e+00 1.0281352966148622e+00 -2.3795588533257181e-01  6.4590349511667622e+00 1.0284644170009072e+00 -2.3124044896118270e-01  6.3681428562974913e+00 1.0283295311994907e+00 -2.2436112786762619e-01  6.2772095238963486e+00 1.0284559742810766e+00 -2.1775045988594471e-01  6.1862870887532191e+00 1.0287074991626413e+00 -2.1134681840616398e-01  6.0953571862262477e+00 1.0284370586534797e+00 -2.0493572552183509e-01  6.0043758724516305e+00 1.0282787552008388e+00 -1.9868464631070001e-01  5.9134575514318612e+00 1.0282277691408015e+00 -1.9258114939249671e-01  5.8225200613176868e+00 1.0280987177748908e+00 -1.8648496093182165e-01  5.7316261864855607e+00 1.0279872142384416e+00 -1.8044367699732458e-01  5.6406760602158235e+00 1.0283212249670686e+00 -1.7453763829483845e-01  5.5497173321405668e+00 1.0285971838774504e+00 -1.6883656488367563e-01  5.4587911057191771e+00 1.0282177914681425e+00 -1.6308852459302173e-01  5.3678277765306914e+00 1.0281319340364441e+00 -1.5750418638520619e-01  5.2768770946300254e+00 1.0283263419684670e+00 -1.5210724490826627e-01  5.1859937657993145e+00 1.0279754962878478e+00 -1.4654241326812967e-01  5.0950431293481451e+00 1.0281245003114330e+00 -1.4121931510785665e-01  5.0040966002417706e+00 1.0282826006314743e+00 -1.3605937315019986e-01  4.9131649468407517e+00 1.0281934545129403e+00 -1.3081963642277980e-01  4.8223291396458334e+00 1.0282095940810616e+00 -1.2578042111699200e-01  4.7314005468185210e+00 1.0283933072177880e+00 -1.2089216245403746e-01  4.6404586961709278e+00 1.0281841555798421e+00 -1.1580917430378261e-01  4.5494259481576300e+00 1.0283089671844736e+00 -1.1081244894695592e-01  4.4584765859872624e+00 1.0284318125123728e+00 -1.0631133152178937e-01  4.3674300283162895e+00 1.0285925421893181e+00 -1.0206423614103337e-01  4.2763677816752725e+00 1.0281785849635510e+00 -9.7708330444993649e-02  4.1855848045057638e+00 1.0284167646710354e+00 -9.3272691929316226e-02  4.0946785331256148e+00 1.0284114710584547e+00 -8.9294112503542078e-02  4.0036752389005406e+00 1.0284276102728065e+00 -8.5140602842214377e-02  3.9126906381642201e+00 1.0282334645529481e+00 -8.0944452145088427e-02  3.8217132021634357e+00 1.0284628568089393e+00 -7.7094505521607307e-02  3.7308180916725857e+00 1.0283917760128476e+00 -7.3424351491725909e-02  3.6399673142785565e+00 1.0284023712452757e+00 -6.9877337295482622e-02  3.5489654601383829e+00 1.0286950052196635e+00 -6.6480005514911220e-02  3.4580072837377211e+00 1.0283954572494358e+00 -6.3029069711220215e-02  3.3669510821457798e+00 1.0282867957221387e+00 -5.9665291427861346e-02  3.2759637570391793e+00 1.0284103979229187e+00 -5.6575097341385390e-02  3.1849614784631979e+00 1.0282555307296848e+00 -5.3369258433185671e-02  3.0939467800042433e+00 1.0277315648584318e+00 -5.0096214167463737e-02  3.0030015969178034e+00 1.0278379355407912e+00 -4.7493314181274074e-02  2.9120232327040614e+00 1.0276416840240279e+00 -4.4673986084471699e-02  2.8210823894890873e+00 1.0277912582077642e+00 -4.1885849467050609e-02  2.7301556148505504e+00 1.0278169653994313e+00 -3.9064002728406773e-02  2.6391420012615479e+00 1.0278356140749692e+00 -3.6257598269783288e-02  2.5480924696328469e+00 1.0278384411394814e+00 -3.3624597862658923e-02  2.4570928583823917e+00 1.0279833760338575e+00 -3.1266448350827231e-02  2.3661158859496920e+00 1.0280021651688263e+00 -2.8866120056503991e-02  2.2751163820531248e+00 1.0280414058497351e+00 -2.6500101316520024e-02  2.1841720650502952e+00 1.0278596132793321e+00 -2.4184300925097629e-02  2.0932480025710847e+00 1.0278437578069375e+00 -2.2171218039958040e-02  2.0023271876958000e+00 1.0280545928520888e+00 -2.0239003651786137e-02  1.9112879696207195e+00 1.0280518538013688e+00 -1.8330486537287635e-02  1.8202300259630031e+00 1.0278794657574792e+00 -1.6243663487695445e-02  1.7292336447345997e+00 1.0281428980134122e+00 -1.4548072588929413e-02  1.6381652709914274e+00 1.0282914194663140e+00 -1.2829430031781996e-02  1.5471423164512550e+00 1.0278802149648061e+00 -1.1007550538877727e-02  1.4561254775837349e+00 1.0279459193324212e+00 -9.6827530677302473e-03  1.3651885079130848e+00 1.0278691550997625e+00 -8.4613241335117911e-03  1.2742265457594502e+00 1.0279287428372308e+00 -7.1878960457683353e-03  1.1832545448047733e+00 1.0278087184738913e+00 -5.7504876211071200e-03  1.0922824744253221e+00 1.0281057168690864e+00 -4.8314863099177202e-03  1.0012927205453286e+00 1.0281744996683209e+00 -3.8722692276316880e-03  9.1027441675093956e-01 1.0281546666990955e+00 -2.9555660075986406e-03  8.1919959305181866e-01 1.0280341749053667e+00 -2.2013101719454285e-03  7.2818002488775613e-01 1.0279489533784669e+00 -1.6462428585847079e-03  6.3711042034375920e-01 1.0279258795070050e+00 -1.1534074341037739e-03  5.4599692538915379e-01 1.0277370739065950e+00 -5.5188600308891315e-04  4.5499313753935527e-01 1.0275515036658212e+00 -2.1534593563762072e-04  3.6396522064566222e-01 1.0276565499466452e+00 -2.2168596110060693e-04  2.7295070327391352e-01 1.0272052421586244e+00 -6.2978047397514413e-05  1.8194597595060436e-01 1.0271016461071836e+00 0.0000000000000000e+00  9.0954381165681539e-02 1.0267280010862829e+00 0.0000000000000000e+00  9.0729565298387715e+00 8.9773297233506832e-01 -5.1957456421863202e-01  9.0842513952218678e+00 7.2256525106474379e-01 -5.0633376439560462e-01  9.0972291319061362e+00 5.4875707139024421e-01 -4.9569850039246305e-01  9.1029581722655415e+00 3.6423519408594468e-01 -4.9137859995353816e-01  9.1115057733435965e+00 1.8120082514231914e-01 -4.8466054379620127e-01  9.0267725763710640e+00 0.0000000000000000e+00 -4.6425386767114318e-01  8.9356453334702497e+00 0.0000000000000000e+00 -4.5152315813952476e-01  8.8434137973937474e+00 0.0000000000000000e+00 -4.3603967524831616e-01  8.7506248022387556e+00 0.0000000000000000e+00 -4.2421774462803102e-01  8.6588606459956630e+00 0.0000000000000000e+00 -4.1552091120894324e-01  8.5662497142597189e+00 0.0000000000000000e+00 -4.0518485475713106e-01  8.4746714309423083e+00 0.0000000000000000e+00 -3.9726022948980616e-01  8.3822257697569604e+00 0.0000000000000000e+00 -3.8975083176677050e-01  8.2894704935280643e+00 0.0000000000000000e+00 -3.7989268168340801e-01  8.1974723788792332e+00 0.0000000000000000e+00 -3.7423151421585910e-01  8.1053486693541803e+00 0.0000000000000000e+00 -3.6738955794915690e-01  8.0135743483143020e+00 0.0000000000000000e+00 -3.5930703110768147e-01  7.9217432726071495e+00 0.0000000000000000e+00 -3.5097295649097499e-01  7.8295432761280868e+00 0.0000000000000000e+00 -3.4265182336259986e-01  7.7379584973639943e+00 0.0000000000000000e+00 -3.3662733646176785e-01  7.6466268878712400e+00 0.0000000000000000e+00 -3.2950372986303089e-01  7.5553504936779659e+00 0.0000000000000000e+00 -3.2162350756233232e-01  7.4633917871554667e+00 0.0000000000000000e+00 -3.1324973750908991e-01  7.3716795795670373e+00 0.0000000000000000e+00 -3.0765386844666054e-01  7.2804559578835413e+00 0.0000000000000000e+00 -2.9975455714527904e-01  7.1889613398381114e+00 0.0000000000000000e+00 -2.9169655590590221e-01  7.0980874750661274e+00 0.0000000000000000e+00 -2.8530468622127508e-01  7.0067099277455629e+00 0.0000000000000000e+00 -2.7703814735713939e-01  6.9152861150199847e+00 0.0000000000000000e+00 -2.7070912409716102e-01  6.8244757138899441e+00 0.0000000000000000e+00 -2.6363252331228232e-01  6.7334307282306209e+00 0.0000000000000000e+00 -2.5600387725582824e-01  6.6420746732610709e+00 0.0000000000000000e+00 -2.4856610844611973e-01  6.5508781562173803e+00 0.0000000000000000e+00 -2.4284777276830444e-01  6.4597300783870724e+00 0.0000000000000000e+00 -2.3566987255356101e-01  6.3686100015015059e+00 0.0000000000000000e+00 -2.2976349031372628e-01  6.2780425588544251e+00 0.0000000000000000e+00 -2.2371556029127942e-01  6.1871844456914413e+00 0.0000000000000000e+00 -2.1687303320586451e-01  6.0960138954960374e+00 0.0000000000000000e+00 -2.0901779102011256e-01  6.0048231086997372e+00 0.0000000000000000e+00 -2.0355326627060283e-01  5.9135766030216068e+00 0.0000000000000000e+00 -1.9613489458803116e-01  5.8229058323705676e+00 0.0000000000000000e+00 -1.9148634524554706e-01  5.7318337571468998e+00 0.0000000000000000e+00 -1.8477949475225389e-01  5.6403775566105239e+00 0.0000000000000000e+00 -1.7830690108023614e-01  5.5493296917637238e+00 0.0000000000000000e+00 -1.7324787746608919e-01  5.4585096674041695e+00 0.0000000000000000e+00 -1.6665897305358177e-01  5.3679114444454807e+00 0.0000000000000000e+00 -1.6219571896431342e-01  5.2773086822304842e+00 0.0000000000000000e+00 -1.5598489111853248e-01  5.1860976370164851e+00 0.0000000000000000e+00 -1.4980983540982196e-01  5.0955961951503861e+00 0.0000000000000000e+00 -1.4596515026968293e-01  5.0048743331411876e+00 0.0000000000000000e+00 -1.4068390174256012e-01  4.9137150571034738e+00 0.0000000000000000e+00 -1.3428145080683887e-01  4.8228212532006083e+00 0.0000000000000000e+00 -1.3031967566010691e-01  4.7316514377874013e+00 0.0000000000000000e+00 -1.2499079868984991e-01  4.6404399048340794e+00 0.0000000000000000e+00 -1.2107879897019652e-01  4.5496621636339070e+00 0.0000000000000000e+00 -1.1630930024018844e-01  4.4587566133572496e+00 0.0000000000000000e+00 -1.1204565930040956e-01  4.3676164596972837e+00 0.0000000000000000e+00 -1.0658498843641702e-01  4.2769348039760269e+00 0.0000000000000000e+00 -1.03