<?xml version="1.0"?>
<VTKFile type="UnstructuredGrid"  version="0.1"  >
<UnstructuredGrid>
<Piece  NumberOfPoints="3069" NumberOfCells="12882">
<Points>
<DataArray  type="Float64"  NumberOfComponents="3"  format="ascii">0 0 0  0 0 4  0 5.65685415 0  50 0 4  50 5.65685415 0  50 0 0  0 0 1  0 0 2  0 0 3  0 1.04967844 3.90746784  0 2.0669806 3.632725  0 3.02052855 3.18424606  0 3.88091111 2.5758636  0 4.62159061 1.82634306  0 5.21972132 0.958802283  0 4.71404505 0  0 3.77123618 0  0 2.82842708 0  0 1.88561809 0  0 0.942809045 0  0.5 0 4  1 0 4  1.5 0 4  2 0 4  2.5 0 4  3 0 4  3.5 0 4  4 0 4  4.5 0 4  5 0 4  5.5 0 4  6 0 4  6.5 0 4  7 0 4  7.5 0 4  8 0 4  8.5 0 4  9 0 4  9.5 0 4  10 0 4  10.5 0 4  11 0 4  11.5 0 4  12 0 4  12.5 0 4  13 0 4  13.5 0 4  14 0 4  14.5 0 4  15 0 4  15.5 0 4  16 0 4  16.5 0 4  17 0 4  17.5 0 4  18 0 4  18.5 0 4  19 0 4  19.5 0 4  20 0 4  20.5 0 4  21 0 4  21.5 0 4  22 0 4  22.5 0 4  23 0 4  23.5 0 4  24 0 4  24.5 0 4  25 0 4  25.5 0 4  26 0 4  26.5 0 4  27 0 4  27.5 0 4  28 0 4  28.5 0 4  29 0 4  29.5 0 4  30 0 4  30.5 0 4  31 0 4  31.5 0 4  32 0 4  32.5 0 4  33 0 4  33.5 0 4  34 0 4  34.5 0 4  35 0 4  35.5 0 4  36 0 4  36.5 0 4  37 0 4  37.5 0 4  38 0 4  38.5 0 4  39 0 4  39.5 0 4  40 0 4  40.5 0 4  41 0 4  41.5 0 4  42 0 4  42.5 0 4  43 0 4  43.5 0 4  44 0 4  44.5 0 4  45 0 4  45.5 0 4  46 0 4  46.5 0 4  47 0 4  47.5 0 4  48 0 4  48.5 0 4  49 0 4  49.5 0 4  50 1.04967844 3.90746784  50 2.0669806 3.632725  50 3.02052855 3.18424606  50 3.88091111 2.5758636  50 4.62159061 1.82634306  50 5.21972132 0.958802283  49.5 5.65685415 0  49 5.65685415 0  48.5 5.65685415 0  48 5.65685415 0  47.5 5.65685415 0  47 5.65685415 0  46.5 5.65685415 0  46 5.65685415 0  45.5 5.65685415 0  45 5.65685415 0  44.5 5.65685415 0  44 5.65685415 0  43.5 5.65685415 0  43 5.65685415 0  42.5 5.65685415 0  42 5.65685415 0  41.5 5.65685415 0  41 5.65685415 0  40.5 5.65685415 0  40 5.65685415 0  39.5 5.65685415 0  39 5.65685415 0  38.5 5.65685415 0  38 5.65685415 0  37.5 5.65685415 0  37 5.65685415 0  36.5 5.65685415 0  36 5.65685415 0  35.5 5.65685415 0  35 5.65685415 0  34.5 5.65685415 0  34 5.65685415 0  33.5 5.65685415 0  33 5.65685415 0  32.5 5.65685415 0  32 5.65685415 0  31.5 5.65685415 0  31 5.65685415 0  30.5 5.65685415 0  30 5.65685415 0  29.5 5.65685415 0  29 5.65685415 0  28.5 5.65685415 0  28 5.65685415 0  27.5 5.65685415 0  27 5.65685415 0  26.5 5.65685415 0  26 5.65685415 0  25.5 5.65685415 0  25 5.65685415 0  24.5 5.65685415 0  24 5.65685415 0  23.5 5.65685415 0  23 5.65685415 0  22.5 5.65685415 0  22 5.65685415 0  21.5 5.65685415 0  21 5.65685415 0  20.5 5.65685415 0  20 5.65685415 0  19.5 5.65685415 0  19 5.65685415 0  18.5 5.65685415 0  18 5.65685415 0  17.5 5.65685415 0  17 5.65685415 0  16.5 5.65685415 0  16 5.65685415 0  15.5 5.65685415 0  15 5.65685415 0  14.5 5.65685415 0  14 5.65685415 0  13.5 5.65685415 0  13 5.65685415 0  12.5 5.65685415 0  12 5.65685415 0  11.5 5.65685415 0  11 5.65685415 0  10.5 5.65685415 0  10 5.65685415 0  9.5 5.65685415 0  9 5.65685415 0  8.5 5.65685415 0  8 5.65685415 0  7.5 5.65685415 0  7 5.65685415 0  6.5 5.65685415 0  6 5.65685415 0  5.5 5.65685415 0  5 5.65685415 0  4.5 5.65685415 0  4 5.65685415 0  3.5 5.65685415 0  3 5.65685415 0  2.5 5.65685415 0  2 5.65685415 0  1.5 5.65685415 0  1 5.65685415 0  0.5 5.65685415 0  50 4.71404505 0  50 3.77123618 0  50 2.82842708 0  50 1.88561809 0  50 0.942809045 0  49.5 0 0  49 0 0  48.5 0 0  48 0 0  47.5 0 0  47 0 0  46.5 0 0  46 0 0  45.5 0 0  45 0 0  44.5 0 0  44 0 0  43.5 0 0  43 0 0  42.5 0 0  42 0 0  41.5 0 0  41 0 0  40.5 0 0  40 0 0  39.5 0 0  39 0 0  38.5 0 0  38 0 0  37.5 0 0  37 0 0  36.5 0 0  36 0 0  35.5 0 0  35 0 0  34.5 0 0  34 0 0  33.5 0 0  33 0 0  32.5 0 0  32 0 0  31.5 0 0  31 0 0  30.5 0 0  30 0 0  29.5 0 0  29 0 0  28.5 0 0  28 0 0  27.5 0 0  27 0 0  26.5 0 0  26 0 0  25.5 0 0  25 0 0  24.5 0 0  24 0 0  23.5 0 0  23 0 0  22.5 0 0  22 0 0  21.5 0 0  21 0 0  20.5 0 0  20 0 0  19.5 0 0  19 0 0  18.5 0 0  18 0 0  17.5 0 0  17 0 0  16.5 0 0  16 0 0  15.5 0 0  15 0 0  14.5 0 0  14 0 0  13.5 0 0  13 0 0  12.5 0 0  12 0 0  11.5 0 0  11 0 0  10.5 0 0  10 0 0  9.5 0 0  9 0 0  8.5 0 0  8 0 0  7.5 0 0  7 0 0  6.5 0 0  6 0 0  5.5 0 0  5 0 0  4.5 0 0  4 0 0  3.5 0 0  3 0 0  2.5 0 0  2 0 0  1.5 0 0  1 0 0  0.5 0 0  50 0 1  50 0 2  50 0 3  0 2.33524275 0.893602192  0 2.87561393 1.93323028  0 4.2367816 0.876864135  0 2.00050235 2.65534091  0 0.981494486 2.34323239  0 3.78543234 1.61830366  0 3.30545568 0.887000024  0 0.812916458 1.58408713  0 1.71948838 1.71268857  0 1.28267908 0.8650629520000001  0 1.21973121 3.10775328  0.5 5.21972132 0.958802223  0.5 4.62159061 1.82634306  0.5 3.88091111 2.5758636  0.5 3.02052855 3.18424606  0.5 2.0669806 3.632725  0.5 1.04967844 3.90746784  1 5.21972132 0.958802223  1 4.62159061 1.82634306  1 3.88091111 2.5758636  1 3.02052855 3.18424606  1 2.0669806 3.632725  1 1.04967844 3.90746784  1.5 5.21972132 0.958802223  1.5 4.62159061 1.82634306  1.5 3.88091111 2.5758636  1.5 3.02052855 3.18424606  1.5 2.0669806 3.632725  1.5 1.04967844 3.90746784  2 5.21972132 0.958802223  2 4.62159061 1.82634306  2 3.88091111 2.5758636  2 3.02052855 3.18424606  2 2.0669806 3.632725  2 1.04967844 3.90746784  2.5 5.21972132 0.958802223  2.5 4.62159061 1.82634306  2.5 3.88091111 2.5758636  2.5 3.02052855 3.18424606  2.5 2.0669806 3.632725  2.5 1.04967844 3.90746784  3 5.21972132 0.958802223  3 4.62159061 1.82634306  3 3.88091111 2.5758636  3 3.02052855 3.18424606  3 2.0669806 3.632725  3 1.04967844 3.90746784  3.5 5.21972132 0.958802223  3.5 4.62159061 1.82634306  3.5 3.88091111 2.5758636  3.5 3.02052855 3.18424606  3.5 2.0669806 3.632725  3.5 1.04967844 3.90746784  4 5.21972132 0.958802223  4 4.62159061 1.82634306  4 3.88091111 2.5758636  4 3.02052855 3.18424606  4 2.0669806 3.632725  4 1.04967844 3.90746784  4.5 5.21972132 0.958802223  4.5 4.62159061 1.82634306  4.5 3.88091111 2.5758636  4.5 3.02052855 3.18424606  4.5 2.0669806 3.632725  4.5 1.04967844 3.90746784  5 5.21972132 0.958802223  5 4.62159061 1.82634306  5 3.88091111 2.5758636  5 3.02052855 3.18424606  5 2.0669806 3.632725  5 1.04967844 3.90746784  5.5 5.21972132 0.958802223  5.5 4.62159061 1.82634306  5.5 3.88091111 2.5758636  5.5 3.02052855 3.18424606  5.5 2.0669806 3.632725  5.5 1.04967844 3.90746784  6 5.21972132 0.958802223  6 4.62159061 1.82634306  6 3.88091111 2.5758636  6 3.02052855 3.18424606  6 2.0669806 3.632725  6 1.04967844 3.90746784  6.5 5.21972132 0.958802223  6.5 4.62159061 1.82634306  6.5 3.88091111 2.5758636  6.5 3.02052855 3.18424606  6.5 2.0669806 3.632725  6.5 1.04967844 3.90746784  7 5.21972132 0.958802223  7 4.62159061 1.82634306  7 3.88091111 2.5758636  7 3.02052855 3.18424606  7 2.0669806 3.632725  7 1.04967844 3.90746784  7.5 5.21972132 0.958802223  7.5 4.62159061 1.82634306  7.5 3.88091111 2.5758636  7.5 3.02052855 3.18424606  7.5 2.0669806 3.632725  7.5 1.04967844 3.90746784  8 5.21972132 0.958802223  8 4.62159061 1.82634306  8 3.88091111 2.5758636  8 3.02052855 3.18424606  8 2.0669806 3.632725  8 1.04967844 3.90746784  8.5 5.21972132 0.958802223  8.5 4.62159061 1.82634306  8.5 3.88091111 2.5758636  8.5 3.02052855 3.18424606  8.5 2.0669806 3.632725  8.5 1.04967844 3.90746784  9 5.21972132 0.958802223  9 4.62159061 1.82634306  9 3.88091111 2.5758636  9 3.02052855 3.18424606  9 2.0669806 3.632725  9 1.04967844 3.90746784  9.5 5.21972132 0.958802223  9.5 4.62159061 1.82634306  9.5 3.88091111 2.5758636  9.5 3.02052855 3.18424606  9.5 2.0669806 3.632725  9.5 1.04967844 3.90746784  10 5.21972132 0.958802223  10 4.62159061 1.82634306  10 3.88091111 2.5758636  10 3.02052855 3.18424606  10 2.0669806 3.632725  10 1.04967844 3.90746784  10.5 5.21972132 0.958802223  10.5 4.62159061 1.82634306  10.5 3.88091111 2.5758636  10.5 3.02052855 3.18424606  10.5 2.0669806 3.632725  10.5 1.04967844 3.90746784  11 5.21972132 0.958802223  11 4.62159061 1.82634306  11 3.88091111 2.5758636  11 3.02052855 3.18424606  11 2.0669806 3.632725  11 1.04967844 3.90746784  11.5 5.21972132 0.958802223  11.5 4.62159061 1.82634306  11.5 3.88091111 2.5758636  11.5 3.02052855 3.18424606  11.5 2.0669806 3.632725  11.5 1.04967844 3.90746784  12 5.21972132 0.958802223  12 4.62159061 1.82634306  12 3.88091111 2.5758636  12 3.02052855 3.18424606  12 2.0669806 3.632725  12 1.04967844 3.90746784  12.5 5.21972132 0.958802223  12.5 4.62159061 1.82634306  12.5 3.88091111 2.5758636  12.5 3.02052855 3.18424606  12.5 2.0669806 3.632725  12.5 1.04967844 3.90746784  13 5.21972132 0.958802223  13 4.62159061 1.82634306  13 3.88091111 2.5758636  13 3.02052855 3.18424606  13 2.0669806 3.632725  13 1.04967844 3.90746784  13.5 5.21972132 0.958802223  13.5 4.62159061 1.82634306  13.5 3.88091111 2.5758636  13.5 3.02052855 3.18424606  13.5 2.0669806 3.632725  13.5 1.04967844 3.90746784  14 5.21972132 0.958802223  14 4.62159061 1.82634306  14 3.88091111 2.5758636  14 3.02052855 3.18424606  14 2.0669806 3.632725  14 1.04967844 3.90746784  14.5 5.21972132 0.958802223  14.5 4.62159061 1.82634306  14.5 3.88091111 2.5758636  14.5 3.02052855 3.18424606  14.5 2.0669806 3.632725  14.5 1.04967844 3.90746784  15 5.21972132 0.958802223  15 4.62159061 1.82634306  15 3.88091111 2.5758636  15 3.02052855 3.18424606  15 2.0669806 3.632725  15 1.04967844 3.90746784  15.5 5.21972132 0.958802223  15.5 4.62159061 1.82634306  15.5 3.88091111 2.5758636  15.5 3.02052855 3.18424606  15.5 2.0669806 3.632725  15.5 1.04967844 3.90746784  16 5.21972132 0.958802223  16 4.62159061 1.82634306  16 3.88091111 2.5758636  16 3.02052855 3.18424606  16 2.0669806 3.632725  16 1.04967844 3.90746784  16.5 5.21972132 0.958802223  16.5 4.62159061 1.82634306  16.5 3.88091111 2.5758636  16.5 3.02052855 3.18424606  16.5 2.0669806 3.632725  16.5 1.04967844 3.90746784  17 5.21972132 0.958802223  17 4.62159061 1.82634306  17 3.88091111 2.5758636  17 3.02052855 3.18424606  17 2.0669806 3.632725  17 1.04967844 3.90746784  17.5 5.21972132 0.958802223  17.5 4.62159061 1.82634306  17.5 3.88091111 2.5758636  17.5 3.02052855 3.18424606  17.
[...]
<PointData  Vectors="f_261141-0"> 
<DataArray  type="Float64"  Name="f_261141-0"  NumberOfComponents="3" format="ascii">0.0000000000000000e+00 0.0000000000000000e+00 0.0000000000000000e+00  0.0000000000000000e+00 0.0000000000000000e+00 6.4008227176188859e-01  0.0000000000000000e+00 1.0051682959795116e+00 0.0000000000000000e+00  8.2248528796320848e+00 0.0000000000000000e+00 3.7892024981248751e+00  8.9533380395623379e+00 8.9872846560554043e-01 3.4099372988128764e+00  8.8012674621898395e+00 0.0000000000000000e+00 3.3238535719159779e+00  0.0000000000000000e+00 0.0000000000000000e+00 1.6346972783725980e-01  0.0000000000000000e+00 0.0000000000000000e+00 3.3676462350681613e-01  0.0000000000000000e+00 0.0000000000000000e+00 4.8388596011062945e-01  0.0000000000000000e+00 1.5714467006651356e-01 6.2565938333518289e-01  0.0000000000000000e+00 3.1960904438507487e-01 6.0508188990085721e-01  0.0000000000000000e+00 4.9079252551300334e-01 5.6376621692256090e-01  0.0000000000000000e+00 6.4982623614472834e-01 4.6972672562722112e-01  0.0000000000000000e+00 8.1604017537484985e-01 3.2842759499790380e-01  0.0000000000000000e+00 9.5350479820051526e-01 1.8048232031846032e-01  0.0000000000000000e+00 8.4805941569287158e-01 0.0000000000000000e+00  0.0000000000000000e+00 6.7019696253680783e-01 0.0000000000000000e+00  0.0000000000000000e+00 4.7289986040993598e-01 0.0000000000000000e+00  0.0000000000000000e+00 2.9835770301431203e-01 0.0000000000000000e+00  0.0000000000000000e+00 1.4744153784344652e-01 0.0000000000000000e+00  8.5904919655410139e-02 0.0000000000000000e+00 6.4501236830992636e-01  1.6595729351557650e-01 0.0000000000000000e+00 6.4141562939820396e-01  2.4905697348785502e-01 0.0000000000000000e+00 6.4693983309705427e-01  3.3679567043923997e-01 0.0000000000000000e+00 6.4861449863024312e-01  4.1911597107264409e-01 0.0000000000000000e+00 6.5715885413801323e-01  5.0867359700863546e-01 0.0000000000000000e+00 6.5393097517332932e-01  5.9082080415979532e-01 0.0000000000000000e+00 6.6477421300299544e-01  6.7821350026999228e-01 0.0000000000000000e+00 6.5917525258931242e-01  7.6203537484268902e-01 0.0000000000000000e+00 6.7405164153311881e-01  8.4419431907331155e-01 0.0000000000000000e+00 6.8014595711165382e-01  9.2517879238582501e-01 0.0000000000000000e+00 6.9597125557551431e-01  1.0115533390400395e+00 0.0000000000000000e+00 6.9450763406467786e-01  1.0955147577478659e+00 0.0000000000000000e+00 7.0876089640933349e-01  1.1914534051993000e+00 0.0000000000000000e+00 7.0830972907346168e-01  1.2741607176629279e+00 0.0000000000000000e+00 7.2762465518616515e-01  1.3613644386447838e+00 0.0000000000000000e+00 7.2884888851152663e-01  1.4459615649238766e+00 0.0000000000000000e+00 7.3245529403234144e-01  1.5286669702067941e+00 0.0000000000000000e+00 7.4666826751157700e-01  1.6148013028317028e+00 0.0000000000000000e+00 7.5851944820000750e-01  1.6985337082933973e+00 0.0000000000000000e+00 7.7137563522009245e-01  1.7791926726690721e+00 0.0000000000000000e+00 7.9297329100159453e-01  1.8699393553152299e+00 0.0000000000000000e+00 8.0390353876968168e-01  1.9570733439381367e+00 0.0000000000000000e+00 8.1847619290210882e-01  2.0435619908416585e+00 0.0000000000000000e+00 8.2276961249188552e-01  2.1240338392388201e+00 0.0000000000000000e+00 8.4920917851099165e-01  2.2083962050869430e+00 0.0000000000000000e+00 8.6174962040549330e-01  2.2941367427334831e+00 0.0000000000000000e+00 8.7711559319601040e-01  2.3775426614275403e+00 0.0000000000000000e+00 9.0132487449833765e-01  2.4604053841921272e+00 0.0000000000000000e+00 9.1338971739917307e-01  2.5476446383253752e+00 0.0000000000000000e+00 9.3105257370374672e-01  2.6274657019228553e+00 0.0000000000000000e+00 9.5953035819499977e-01  2.7171854926700840e+00 0.0000000000000000e+00 9.7642491478909310e-01  2.7980646081550429e+00 0.0000000000000000e+00 1.0031096922903724e+00  2.8865575268082559e+00 0.0000000000000000e+00 1.0125565426610870e+00  2.9731607681823347e+00 0.0000000000000000e+00 1.0315955282961071e+00  3.0606969215012425e+00 0.0000000000000000e+00 1.0523273171672753e+00  3.1425027512008650e+00 0.0000000000000000e+00 1.0791883469072547e+00  3.2224723014944456e+00 0.0000000000000000e+00 1.1094186150212433e+00  3.3111062694760314e+00 0.0000000000000000e+00 1.1249815691506424e+00  3.3923139919963647e+00 0.0000000000000000e+00 1.1572336877931575e+00  3.4758941448446836e+00 0.0000000000000000e+00 1.1926022062937831e+00  3.5627571149290427e+00 0.0000000000000000e+00 1.2104187869028278e+00  3.6401145446538821e+00 0.0000000000000000e+00 1.2415303675687643e+00  3.7309693176141709e+00 0.0000000000000000e+00 1.2546599072196898e+00  3.8142198722456948e+00 0.0000000000000000e+00 1.2843882559133932e+00  3.8998888629505979e+00 0.0000000000000000e+00 1.3176728323523879e+00  3.9814393256287559e+00 0.0000000000000000e+00 1.3535148780427428e+00  4.0638106061973645e+00 0.0000000000000000e+00 1.3841457579381136e+00  4.1484466464201315e+00 0.0000000000000000e+00 1.4187845614334316e+00  4.2341356495940641e+00 0.0000000000000000e+00 1.4473930029931064e+00  4.3231127379805221e+00 0.0000000000000000e+00 1.4796113048467707e+00  4.4005950316471356e+00 0.0000000000000000e+00 1.5239123105612737e+00  4.4877389571583448e+00 0.0000000000000000e+00 1.5497976115975305e+00  4.5646929961440312e+00 0.0000000000000000e+00 1.6024568682627842e+00  4.6502396564324275e+00 0.0000000000000000e+00 1.6275475428435435e+00  4.7373785225038345e+00 0.0000000000000000e+00 1.6558424181330220e+00  4.8254867864814566e+00 0.0000000000000000e+00 1.6900163721391948e+00  4.9085364156809055e+00 0.0000000000000000e+00 1.7358388396510498e+00  4.9879530729434087e+00 0.0000000000000000e+00 1.7870715678041436e+00  5.0699793722733624e+00 0.0000000000000000e+00 1.8230551563156621e+00  5.1575566876276406e+00 0.0000000000000000e+00 1.8482015180269238e+00  5.2382698991277170e+00 0.0000000000000000e+00 1.9004687280618517e+00  5.3234891888528457e+00 0.0000000000000000e+00 1.9304274900087133e+00  5.4128317602400298e+00 0.0000000000000000e+00 1.9679122453130806e+00  5.4908211978113135e+00 0.0000000000000000e+00 2.0229266119865814e+00  5.5747075642465038e+00 0.0000000000000000e+00 2.0629705662435178e+00  5.6640593730508373e+00 0.0000000000000000e+00 2.1085123342917091e+00  5.7423890307204690e+00 0.0000000000000000e+00 2.1566754517270814e+00  5.8222713906087789e+00 0.0000000000000000e+00 2.1999877950444584e+00  5.9056436431897632e+00 0.0000000000000000e+00 2.2444489329856472e+00  5.9847716127351411e+00 0.0000000000000000e+00 2.2938556463366622e+00  6.0659361832104528e+00 0.0000000000000000e+00 2.3458295692522264e+00  6.1494266919884311e+00 0.0000000000000000e+00 2.3896057535349895e+00  6.2324381892032559e+00 0.0000000000000000e+00 2.4418110180685679e+00  6.3232317399896498e+00 0.0000000000000000e+00 2.4834026899143322e+00  6.4009081488067672e+00 0.0000000000000000e+00 2.5458913843847464e+00  6.4846243491798621e+00 0.0000000000000000e+00 2.5971781944165380e+00  6.5639049698883269e+00 0.0000000000000000e+00 2.6507997574018782e+00  6.6505100438184126e+00 0.0000000000000000e+00 2.6978936258049342e+00  6.7311569356343730e+00 0.0000000000000000e+00 2.7550582163480399e+00  6.8144588803663950e+00 0.0000000000000000e+00 2.8125632312992415e+00  6.9000660338409316e+00 0.0000000000000000e+00 2.8540255965836163e+00  6.9876855506678419e+00 0.0000000000000000e+00 2.9101074207334166e+00  7.0651830051851707e+00 0.0000000000000000e+00 2.9786489254174389e+00  7.1510585704206111e+00 0.0000000000000000e+00 3.0190689136151332e+00  7.2293920405140550e+00 0.0000000000000000e+00 3.0829486541416005e+00  7.3119915694258122e+00 0.0000000000000000e+00 3.1409579660202449e+00  7.3932198581765975e+00 0.0000000000000000e+00 3.1899310813292590e+00  7.4814788940150843e+00 0.0000000000000000e+00 3.2385810667683934e+00  7.5593405605195052e+00 0.0000000000000000e+00 3.3000850911083828e+00  7.6435712582173849e+00 0.0000000000000000e+00 3.3417276685207353e+00  7.7233578572848112e+00 0.0000000000000000e+00 3.3937179922747029e+00  7.8042468671067828e+00 0.0000000000000000e+00 3.4382866880362006e+00  7.8808220874162851e+00 0.0000000000000000e+00 3.4884574022972008e+00  7.9523678752325209e+00 0.0000000000000000e+00 3.5317859811367076e+00  8.0172137960734684e+00 0.0000000000000000e+00 3.5731051358852128e+00  8.0781425180025703e+00 0.0000000000000000e+00 3.6206172832406396e+00  8.1339167377713615e+00 0.0000000000000000e+00 3.6651222418528913e+00  8.1807060828053260e+00 0.0000000000000000e+00 3.7193020464611650e+00  8.2485416014369335e+00 9.3314284982624146e-02 3.7806419516828460e+00  8.3127057399362467e+00 2.0476709736461640e-01 3.7781856270239160e+00  8.3952220765078298e+00 3.2478491025316936e-01 3.7732939389505584e+00  8.5015823102608348e+00 4.6663310042531103e-01 3.7577984275954783e+00  8.6609282425613774e+00 6.3321474997323279e-01 3.6946135794645079e+00  8.8228619820014345e+00 7.8846830746349639e-01 3.5605080218664118e+00  8.8750056657274623e+00 9.1334691676888569e-01 3.3419193419258453e+00  8.7920465061472601e+00 9.3406475714623349e-01 3.2674098004515817e+00  8.7088666227845248e+00 9.5063463722286878e-01 3.1940475086581350e+00  8.6189555133920823e+00 9.5889344407394594e-01 3.1263786541930978e+00  8.5338152759794426e+00 9.7092729616387918e-01 3.0537869517568086e+00  8.4454518806297969e+00 9.8747138783428223e-01 2.9741227209283028e+00  8.3546421807191535e+00 9.8882094576817903e-01 2.8979255874741665e+00  8.2588004783239217e+00 9.9285197719972962e-01 2.8297645944301473e+00  8.1657407444386330e+00 9.9993611769258006e-01 2.7603469878441285e+00  8.0691850892467283e+00 1.0027326820850537e+00 2.6952536996564112e+00  7.9757573390954226e+00 1.0040898080858485e+00 2.6268477413748097e+00  7.8835060147326219e+00 1.0108841916866040e+00 2.5597079107503005e+00  7.7918073046732816e+00 1.0120845911487877e+00 2.5028213660866760e+00  7.7004499373377007e+00 1.0107271455031419e+00 2.4423754516697493e+00  7.6127556119488604e+00 1.0087403351596198e+00 2.3726215823364556e+00  7.5195315439618833e+00 1.0011298845752494e+00 2.3128106651121265e+00  7.4336873286916267e+00 1.0023827823586160e+00 2.2684488709260462e+00  7.3451182235053665e+00 1.0118205442899169e+00 2.2207211731369982e+00  7.2599177569686093e+00 1.0178894665347682e+00 2.1658578139973947e+00  7.1725880064410710e+00 1.0206310098933373e+00 2.1135179575272867e+00  7.0831498993495341e+00 1.0231710694977239e+00 2.0626540718751150e+00  6.9915644023614476e+00 1.0187188471490956e+00 2.0143313705889243e+00  6.9012416718458809e+00 1.0226399386239500e+00 1.9579540307261658e+00  6.8113578002771247e+00 1.0109313190477858e+00 1.9052002103393111e+00  6.7248107702541757e+00 1.0111915615671880e+00 1.8445873014224310e+00  6.6365391425569280e+00 1.0041609645422591e+00 1.7915277683258382e+00  6.5465497286762595e+00 1.0041750496325828e+00 1.7386751719229816e+00  6.4578329574012834e+00 1.0047084550440395e+00 1.6833574781376555e+00  6.3705917360151618e+00 1.0040491252006984e+00 1.6331925252742865e+00  6.2835296787086445e+00 1.0030031786252540e+00 1.5846449024194225e+00  6.1934199766170854e+00 1.0009306748796067e+00 1.5367847094256926e+00  6.1048383263174966e+00 9.9982747311538589e-01 1.4885394713538729e+00  6.0159586972930805e+00 9.9457187941126080e-01 1.4411227004905609e+00  5.9271708936040399e+00 9.9307886942835744e-01 1.3911898220984504e+00  5.8392364189191541e+00 9.9354151875239027e-01 1.3467386170052513e+00  5.7515610545790281e+00 9.9361244168002572e-01 1.3005195122898334e+00  5.6624323435870618e+00 9.9854678080168147e-01 1.2541673265445732e+00  5.5711386060308756e+00 9.9855311392559132e-01 1.2129505642953580e+00  5.4808052637329769e+00 9.9900846140767730e-01 1.1693772885372993e+00  5.3929605296850172e+00 9.9331226739964928e-01 1.1242745016119222e+00  5.3026102553063383e+00 9.9023466454782194e-01 1.0804016505343259e+00  5.2131782580652279e+00 9.9000580002556471e-01 1.0408795609411219e+00  5.1241334602858410e+00 9.8190417786338136e-01 1.0077142644207440e+00  5.0361169438133260e+00 9.8278010314662001e-01 9.6884490308920268e-01  4.9502966729985980e+00 9.8958184148107731e-01 9.2942602939757490e-01  4.8628697986885188e+00 9.9176331997416467e-01 8.9790761168837874e-01  4.7755756652232897e+00 9.9925111153152657e-01 8.6404474519507879e-01  4.6859500590224474e+00 9.9811021685535140e-01 8.3136965599268653e-01  4.5943002737585736e+00 9.9199516328883985e-01 8.0091390546353036e-01  4.5014187615464953e+00 9.9591069058467363e-01 7.6848343056112034e-01  4.4102603848175956e+00 9.9281320203516787e-01 7.3636568401197056e-01  4.3201044728566691e+00 1.0024725161685517e+00 6.9417310163364521e-01  4.2308585001920509e+00 9.9650100761993077e-01 6.6745878978581752e-01  4.1382485826347661e+00 9.9927223942552423e-01 6.2410388328491995e-01  4.0509457073786290e+00 9.9620165002721095e-01 5.8985391488474914e-01  3.9579485486515087e+00 9.9404599302926155e-01 5.6748725569720293e-01  3.8660538054938698e+00 9.9415716891741657e-01 5.4807290939517284e-01  3.7775304127217773e+00 1.0004263438976031e+00 5.1917456753656277e-01  3.6877243634560468e+00 1.0019685538601757e+00 4.9408299573734948e-01  3.6003333359307854e+00 1.0013131588816913e+00 4.6763732934059077e-01  3.5086217371381760e+00 1.0050278170325202e+00 4.4049730336602616e-01  3.4185294627417711e+00 9.9794804183752817e-01 4.1652928553687546e-01  3.3256769742746446e+00 9.9977270388292894e-01 3.9523468759833374e-01  3.2388515083827665e+00 1.0020580192430268e+00 3.6707389213669855e-01  3.1482459607361459e+00 9.9941460345847166e-01 3.5125805622249240e-01  3.0566565844666505e+00 9.8946320781685959e-01 3.3919288192237451e-01  2.9681944138528054e+00 9.9762271716132445e-01 3.0982062073470495e-01  2.8795781705959596e+00 9.9792843692924738e-01 2.8482309281047674e-01  2.7919688647278189e+00 9.9345031602421963e-01 2.6633414971292746e-01  2.7032496814688631e+00 9.9724538385312789e-01 2.4580025604815273e-01  2.6121532775381220e+00 9.9635929635866749e-01 2.3067013369770942e-01  2.5210093135354406e+00 9.9974845846774829e-01 2.1102543076702199e-01  2.4312947296842884e+00 1.0015523379296660e+00 1.9053735002181477e-01  2.3396597679037408e+00 9.9677936574384718e-01 1.7614076282407254e-01  2.2488559214041963e+00 9.9716396386641459e-01 1.5891817606431050e-01  2.1581482973686490e+00 9.9478616336316095e-01 1.4544791930395629e-01  2.0681446887249710e+00 1.0001359141460338e+00 1.3025212022542249e-01  1.9821656963994216e+00 1.0047276040342883e+00 1.1563633556537113e-01  1.8906645276033547e+00 1.0081128861040161e+00 1.0454404234369594e-01  1.7984809908021944e+00 1.0010227228467810e+00 1.0098787060989500e-01  1.7099144013386809e+00 1.0079153868444386e+00 8.6410965511908452e-02  1.6185266243086516e+00 1.0068898574034901e+00 7.8694131682804799e-02  1.5293262644574501e+00 9.9845230091951032e-01 7.2422193015393724e-02  1.4394839879597645e+00 1.0054367553587840e+00 5.5946509452515371e-02  1.3519577052340315e+00 1.0036653929786468e+00 4.3534262722350288e-02  1.2630904449847333e+00 1.0052159029163465e+00 3.5665819462134561e-02  1.1716786917848354e+00 9.9947176491839440e-01 3.6266926690342011e-02  1.0809918349775198e+00 1.0080508654909792e+00 2.4514485213825592e-02  9.9007589878582947e-01 1.0062918100562710e+00 1.7265056158495124e-02  8.9841879313562312e-01 1.0105216068268126e+00 1.1810655674293262e-02  8.0811261313567351e-01 1.0081843374985890e+00 1.9476206719955648e-03  7.1966470142712313e-01 1.0094521691585896e+00 -1.5126040819964245e-03  6.2941541796309242e-01 1.0137627269674792e+00 -4.8868397926831791e-03  5.3701918279078398e-01 1.0137349453271507e+00 1.0315733400036839e-03  4.4813998413224904e-01 1.0129340034768417e+00 4.4542292635305963e-03  3.5846249135955160e-01 1.0170640420837118e+00 2.7160205637316841e-03  2.6759355405741808e-01 1.0089915579724265e+00 3.2722526321787931e-03  1.7925181038763585e-01 1.0083398766202549e+00 0.0000000000000000e+00  8.8942300355605769e-02 1.0016709569171443e+00 0.0000000000000000e+00  8.9227822651997286e+00 7.2627264247385803e-01 3.3908742338135509e+00  8.8940639954054568e+00 5.7035694346166177e-01 3.3662574996925612e+00  8.8645979145993046e+00 4.1750959100690316e-01 3.3404948201302433e+00  8.8496281380656505e+00 2.7534387103604047e-01 3.3453973754267605e+00  8.8204870334176011e+00 1.2630812152017040e-01 3.3238359341256301e+00  8.7241700646562315e+00 0.0000000000000000e+00 3.2381609498271127e+00  8.6521251960499477e+00 0.0000000000000000e+00 3.1698768177301027e+00  8.5750880990076972e+00 0.0000000000000000e+00 3.0962615368631581e+00  8.4959375176346441e+00 0.0000000000000000e+00 3.0263533508109868e+00  8.4101391668253260e+00 0.0000000000000000e+00 2.9733635083589900e+00  8.3282853709094109e+00 0.0000000000000000e+00 2.9121400751166138e+00  8.2447136509290644e+00 0.0000000000000000e+00 2.8533812424626870e+00  8.1610932180122404e+00 0.0000000000000000e+00 2.7962698065214244e+00  8.0805838245475599e+00 0.0000000000000000e+00 2.7337826925072131e+00  7.9946324605809416e+00 0.0000000000000000e+00 2.6822592174176507e+00  7.9117392934187896e+00 0.0000000000000000e+00 2.6300045288105771e+00  7.8297655887743023e+00 0.0000000000000000e+00 2.5701572334747618e+00  7.7464169787731194e+00 0.0000000000000000e+00 2.5173947045407110e+00  7.6580838509136990e+00 0.0000000000000000e+00 2.4680576762862532e+00  7.5758725030930067e+00 0.0000000000000000e+00 2.4127199322212034e+00  7.4938778859246922e+00 0.0000000000000000e+00 2.3531057637442645e+00  7.4095166522064568e+00 0.0000000000000000e+00 2.2992885402846506e+00  7.3262550458520810e+00 0.0000000000000000e+00 2.2410767951545671e+00  7.2413471462954897e+00 0.0000000000000000e+00 2.1837556553655428e+00  7.1571991556649097e+00 0.0000000000000000e+00 2.1311618249357300e+00  7.0704586484241885e+00 0.0000000000000000e+00 2.0767879263163178e+00  6.9769765516221103e+00 0.0000000000000000e+00 2.0409583167592902e+00  6.8904451706379666e+00 0.0000000000000000e+00 1.9873983879005586e+00  6.8027672928489009e+00 0.0000000000000000e+00 1.9381119951110697e+00  6.7158205621155247e+00 0.0000000000000000e+00 1.8855765464816507e+00  6.6266594975091602e+00 0.0000000000000000e+00 1.8390001570112291e+00  6.5403720111056991e+00 0.0000000000000000e+00 1.7777489569737250e+00  6.4490462749239432e+00 0.0000000000000000e+00 1.7333778713023633e+00  6.3604473990793791e+00 0.0000000000000000e+00 1.6790193877415784e+00  6.2700488333351174e+00 0.0000000000000000e+00 1.6353063936675016e+00  6.1841098578690463e+00 0.0000000000000000e+00 1.5858328504458072e+00  6.0986940051684480e+00 0.0000000000000000e+00 1.5414489494980368e+00  6.0151225929146195e+00 0.0000000000000000e+00 1.4896594401487109e+00  5.9257868262052060e+00 0.0000000000000000e+00 1.4434959498489983e+00  5.8347299295768931e+00 0.0000000000000000e+00 1.3972888638844989e+00  5.7452827954892891e+00 0.0000000000000000e+00 1.3563478949138337e+00  5.6544305166975173e+00 0.0000000000000000e+00 1.3116885575526724e+00  5.5660812909258732e+00 0.0000000000000000e+00 1.2739339084678438e+00  5.4754196121987206e+00 0.0000000000000000e+00 1.2397433290470645e+00  5.3888155557547055e+00 0.0000000000000000e+00 1.1960694477274323e+00  5.2992124464382782e+00 0.0000000000000000e+00 1.1575270295278759e+00  5.2122281866368452e+00 0.0000000000000000e+00 1.1157765730004312e+00  5.1203108468597245e+00 0.0000000000000000e+00 1.0756397460462168e+00  5.0333455424895552e+00 0.0000000000000000e+00 1.0365755729007360e+00  4.9450909342999969e+00 0.0000000000000000e+00 9.9814563057414518e-01  4.8545158171664315e+00 0.0000000000000000e+00 9.6627061713258511e-01  4.7633996542857515e+00 0.0000000000000000e+00 9.3214057242911141e-01  4.6789102699947733e+00 0.0000000000000000e+00 8.9284483180928598e-01  4.5836205420609941e+00 0.0000000000000000e+00 8.6299796154171682e-01  4.4952532410638852e+00 0.0000000000000000e+00 8.2493127074266914e-01  4.4062513936785885e+00 0.0000000000000000e+00 7.8740200741639099e-01  4.3187268930559792e+00 0.0000000000000000e+00 7.5372058152163424e-01  4.2302550158262582e+00 0.0000000000000000e+00 7.2259458416644851e-01  4.1412044017845107e+00 0.0000000000000000e+00 6.9250425178119801e-01  4.0480258817135493e+00 0.0000000000000000e+00 6.6014630835897969e-01