<?xml version="1.0"?>
<VTKFile type="UnstructuredGrid"  version="0.1"  >
<UnstructuredGrid>
<Piece  NumberOfPoints="3069" NumberOfCells="12882">
<Points>
<DataArray  type="Float64"  NumberOfComponents="3"  format="ascii">0 0 0  0 0 4  0 5.65685415 0  50 0 4  50 5.65685415 0  50 0 0  0 0 1  0 0 2  0 0 3  0 1.04967844 3.90746784  0 2.0669806 3.632725  0 3.02052855 3.18424606  0 3.88091111 2.5758636  0 4.62159061 1.82634306  0 5.21972132 0.958802283  0 4.71404505 0  0 3.77123618 0  0 2.82842708 0  0 1.88561809 0  0 0.942809045 0  0.5 0 4  1 0 4  1.5 0 4  2 0 4  2.5 0 4  3 0 4  3.5 0 4  4 0 4  4.5 0 4  5 0 4  5.5 0 4  6 0 4  6.5 0 4  7 0 4  7.5 0 4  8 0 4  8.5 0 4  9 0 4  9.5 0 4  10 0 4  10.5 0 4  11 0 4  11.5 0 4  12 0 4  12.5 0 4  13 0 4  13.5 0 4  14 0 4  14.5 0 4  15 0 4  15.5 0 4  16 0 4  16.5 0 4  17 0 4  17.5 0 4  18 0 4  18.5 0 4  19 0 4  19.5 0 4  20 0 4  20.5 0 4  21 0 4  21.5 0 4  22 0 4  22.5 0 4  23 0 4  23.5 0 4  24 0 4  24.5 0 4  25 0 4  25.5 0 4  26 0 4  26.5 0 4  27 0 4  27.5 0 4  28 0 4  28.5 0 4  29 0 4  29.5 0 4  30 0 4  30.5 0 4  31 0 4  31.5 0 4  32 0 4  32.5 0 4  33 0 4  33.5 0 4  34 0 4  34.5 0 4  35 0 4  35.5 0 4  36 0 4  36.5 0 4  37 0 4  37.5 0 4  38 0 4  38.5 0 4  39 0 4  39.5 0 4  40 0 4  40.5 0 4  41 0 4  41.5 0 4  42 0 4  42.5 0 4  43 0 4  43.5 0 4  44 0 4  44.5 0 4  45 0 4  45.5 0 4  46 0 4  46.5 0 4  47 0 4  47.5 0 4  48 0 4  48.5 0 4  49 0 4  49.5 0 4  50 1.04967844 3.90746784  50 2.0669806 3.632725  50 3.02052855 3.18424606  50 3.88091111 2.5758636  50 4.62159061 1.82634306  50 5.21972132 0.958802283  49.5 5.65685415 0  49 5.65685415 0  48.5 5.65685415 0  48 5.65685415 0  47.5 5.65685415 0  47 5.65685415 0  46.5 5.65685415 0  46 5.65685415 0  45.5 5.65685415 0  45 5.65685415 0  44.5 5.65685415 0  44 5.65685415 0  43.5 5.65685415 0  43 5.65685415 0  42.5 5.65685415 0  42 5.65685415 0  41.5 5.65685415 0  41 5.65685415 0  40.5 5.65685415 0  40 5.65685415 0  39.5 5.65685415 0  39 5.65685415 0  38.5 5.65685415 0  38 5.65685415 0  37.5 5.65685415 0  37 5.65685415 0  36.5 5.65685415 0  36 5.65685415 0  35.5 5.65685415 0  35 5.65685415 0  34.5 5.65685415 0  34 5.65685415 0  33.5 5.65685415 0  33 5.65685415 0  32.5 5.65685415 0  32 5.65685415 0  31.5 5.65685415 0  31 5.65685415 0  30.5 5.65685415 0  30 5.65685415 0  29.5 5.65685415 0  29 5.65685415 0  28.5 5.65685415 0  28 5.65685415 0  27.5 5.65685415 0  27 5.65685415 0  26.5 5.65685415 0  26 5.65685415 0  25.5 5.65685415 0  25 5.65685415 0  24.5 5.65685415 0  24 5.65685415 0  23.5 5.65685415 0  23 5.65685415 0  22.5 5.65685415 0  22 5.65685415 0  21.5 5.65685415 0  21 5.65685415 0  20.5 5.65685415 0  20 5.65685415 0  19.5 5.65685415 0  19 5.65685415 0  18.5 5.65685415 0  18 5.65685415 0  17.5 5.65685415 0  17 5.65685415 0  16.5 5.65685415 0  16 5.65685415 0  15.5 5.65685415 0  15 5.65685415 0  14.5 5.65685415 0  14 5.65685415 0  13.5 5.65685415 0  13 5.65685415 0  12.5 5.65685415 0  12 5.65685415 0  11.5 5.65685415 0  11 5.65685415 0  10.5 5.65685415 0  10 5.65685415 0  9.5 5.65685415 0  9 5.65685415 0  8.5 5.65685415 0  8 5.65685415 0  7.5 5.65685415 0  7 5.65685415 0  6.5 5.65685415 0  6 5.65685415 0  5.5 5.65685415 0  5 5.65685415 0  4.5 5.65685415 0  4 5.65685415 0  3.5 5.65685415 0  3 5.65685415 0  2.5 5.65685415 0  2 5.65685415 0  1.5 5.65685415 0  1 5.65685415 0  0.5 5.65685415 0  50 4.71404505 0  50 3.77123618 0  50 2.82842708 0  50 1.88561809 0  50 0.942809045 0  49.5 0 0  49 0 0  48.5 0 0  48 0 0  47.5 0 0  47 0 0  46.5 0 0  46 0 0  45.5 0 0  45 0 0  44.5 0 0  44 0 0  43.5 0 0  43 0 0  42.5 0 0  42 0 0  41.5 0 0  41 0 0  40.5 0 0  40 0 0  39.5 0 0  39 0 0  38.5 0 0  38 0 0  37.5 0 0  37 0 0  36.5 0 0  36 0 0  35.5 0 0  35 0 0  34.5 0 0  34 0 0  33.5 0 0  33 0 0  32.5 0 0  32 0 0  31.5 0 0  31 0 0  30.5 0 0  30 0 0  29.5 0 0  29 0 0  28.5 0 0  28 0 0  27.5 0 0  27 0 0  26.5 0 0  26 0 0  25.5 0 0  25 0 0  24.5 0 0  24 0 0  23.5 0 0  23 0 0  22.5 0 0  22 0 0  21.5 0 0  21 0 0  20.5 0 0  20 0 0  19.5 0 0  19 0 0  18.5 0 0  18 0 0  17.5 0 0  17 0 0  16.5 0 0  16 0 0  15.5 0 0  15 0 0  14.5 0 0  14 0 0  13.5 0 0  13 0 0  12.5 0 0  12 0 0  11.5 0 0  11 0 0  10.5 0 0  10 0 0  9.5 0 0  9 0 0  8.5 0 0  8 0 0  7.5 0 0  7 0 0  6.5 0 0  6 0 0  5.5 0 0  5 0 0  4.5 0 0  4 0 0  3.5 0 0  3 0 0  2.5 0 0  2 0 0  1.5 0 0  1 0 0  0.5 0 0  50 0 1  50 0 2  50 0 3  0 2.33524275 0.893602192  0 2.87561393 1.93323028  0 4.2367816 0.876864135  0 2.00050235 2.65534091  0 0.981494486 2.34323239  0 3.78543234 1.61830366  0 3.30545568 0.887000024  0 0.812916458 1.58408713  0 1.71948838 1.71268857  0 1.28267908 0.8650629520000001  0 1.21973121 3.10775328  0.5 5.21972132 0.958802223  0.5 4.62159061 1.82634306  0.5 3.88091111 2.5758636  0.5 3.02052855 3.18424606  0.5 2.0669806 3.632725  0.5 1.04967844 3.90746784  1 5.21972132 0.958802223  1 4.62159061 1.82634306  1 3.88091111 2.5758636  1 3.02052855 3.18424606  1 2.0669806 3.632725  1 1.04967844 3.90746784  1.5 5.21972132 0.958802223  1.5 4.62159061 1.82634306  1.5 3.88091111 2.5758636  1.5 3.02052855 3.18424606  1.5 2.0669806 3.632725  1.5 1.04967844 3.90746784  2 5.21972132 0.958802223  2 4.62159061 1.82634306  2 3.88091111 2.5758636  2 3.02052855 3.18424606  2 2.0669806 3.632725  2 1.04967844 3.90746784  2.5 5.21972132 0.958802223  2.5 4.62159061 1.82634306  2.5 3.88091111 2.5758636  2.5 3.02052855 3.18424606  2.5 2.0669806 3.632725  2.5 1.04967844 3.90746784  3 5.21972132 0.958802223  3 4.62159061 1.82634306  3 3.88091111 2.5758636  3 3.02052855 3.18424606  3 2.0669806 3.632725  3 1.04967844 3.90746784  3.5 5.21972132 0.958802223  3.5 4.62159061 1.82634306  3.5 3.88091111 2.5758636  3.5 3.02052855 3.18424606  3.5 2.0669806 3.632725  3.5 1.04967844 3.90746784  4 5.21972132 0.958802223  4 4.62159061 1.82634306  4 3.88091111 2.5758636  4 3.02052855 3.18424606  4 2.0669806 3.632725  4 1.04967844 3.90746784  4.5 5.21972132 0.958802223  4.5 4.62159061 1.82634306  4.5 3.88091111 2.5758636  4.5 3.02052855 3.18424606  4.5 2.0669806 3.632725  4.5 1.04967844 3.90746784  5 5.21972132 0.958802223  5 4.62159061 1.82634306  5 3.88091111 2.5758636  5 3.02052855 3.18424606  5 2.0669806 3.632725  5 1.04967844 3.90746784  5.5 5.21972132 0.958802223  5.5 4.62159061 1.82634306  5.5 3.88091111 2.5758636  5.5 3.02052855 3.18424606  5.5 2.0669806 3.632725  5.5 1.04967844 3.90746784  6 5.21972132 0.958802223  6 4.62159061 1.82634306  6 3.88091111 2.5758636  6 3.02052855 3.18424606  6 2.0669806 3.632725  6 1.04967844 3.90746784  6.5 5.21972132 0.958802223  6.5 4.62159061 1.82634306  6.5 3.88091111 2.5758636  6.5 3.02052855 3.18424606  6.5 2.0669806 3.632725  6.5 1.04967844 3.90746784  7 5.21972132 0.958802223  7 4.62159061 1.82634306  7 3.88091111 2.5758636  7 3.02052855 3.18424606  7 2.0669806 3.632725  7 1.04967844 3.90746784  7.5 5.21972132 0.958802223  7.5 4.62159061 1.82634306  7.5 3.88091111 2.5758636  7.5 3.02052855 3.18424606  7.5 2.0669806 3.632725  7.5 1.04967844 3.90746784  8 5.21972132 0.958802223  8 4.62159061 1.82634306  8 3.88091111 2.5758636  8 3.02052855 3.18424606  8 2.0669806 3.632725  8 1.04967844 3.90746784  8.5 5.21972132 0.958802223  8.5 4.62159061 1.82634306  8.5 3.88091111 2.5758636  8.5 3.02052855 3.18424606  8.5 2.0669806 3.632725  8.5 1.04967844 3.90746784  9 5.21972132 0.958802223  9 4.62159061 1.82634306  9 3.88091111 2.5758636  9 3.02052855 3.18424606  9 2.0669806 3.632725  9 1.04967844 3.90746784  9.5 5.21972132 0.958802223  9.5 4.62159061 1.82634306  9.5 3.88091111 2.5758636  9.5 3.02052855 3.18424606  9.5 2.0669806 3.632725  9.5 1.04967844 3.90746784  10 5.21972132 0.958802223  10 4.62159061 1.82634306  10 3.88091111 2.5758636  10 3.02052855 3.18424606  10 2.0669806 3.632725  10 1.04967844 3.90746784  10.5 5.21972132 0.958802223  10.5 4.62159061 1.82634306  10.5 3.88091111 2.5758636  10.5 3.02052855 3.18424606  10.5 2.0669806 3.632725  10.5 1.04967844 3.90746784  11 5.21972132 0.958802223  11 4.62159061 1.82634306  11 3.88091111 2.5758636  11 3.02052855 3.18424606  11 2.0669806 3.632725  11 1.04967844 3.90746784  11.5 5.21972132 0.958802223  11.5 4.62159061 1.82634306  11.5 3.88091111 2.5758636  11.5 3.02052855 3.18424606  11.5 2.0669806 3.632725  11.5 1.04967844 3.90746784  12 5.21972132 0.958802223  12 4.62159061 1.82634306  12 3.88091111 2.5758636  12 3.02052855 3.18424606  12 2.0669806 3.632725  12 1.04967844 3.90746784  12.5 5.21972132 0.958802223  12.5 4.62159061 1.82634306  12.5 3.88091111 2.5758636  12.5 3.02052855 3.18424606  12.5 2.0669806 3.632725  12.5 1.04967844 3.90746784  13 5.21972132 0.958802223  13 4.62159061 1.82634306  13 3.88091111 2.5758636  13 3.02052855 3.18424606  13 2.0669806 3.632725  13 1.04967844 3.90746784  13.5 5.21972132 0.958802223  13.5 4.62159061 1.82634306  13.5 3.88091111 2.5758636  13.5 3.02052855 3.18424606  13.5 2.0669806 3.632725  13.5 1.04967844 3.90746784  14 5.21972132 0.958802223  14 4.62159061 1.82634306  14 3.88091111 2.5758636  14 3.02052855 3.18424606  14 2.0669806 3.632725  14 1.04967844 3.90746784  14.5 5.21972132 0.958802223  14.5 4.62159061 1.82634306  14.5 3.88091111 2.5758636  14.5 3.02052855 3.18424606  14.5 2.0669806 3.632725  14.5 1.04967844 3.90746784  15 5.21972132 0.958802223  15 4.62159061 1.82634306  15 3.88091111 2.5758636  15 3.02052855 3.18424606  15 2.0669806 3.632725  15 1.04967844 3.90746784  15.5 5.21972132 0.958802223  15.5 4.62159061 1.82634306  15.5 3.88091111 2.5758636  15.5 3.02052855 3.18424606  15.5 2.0669806 3.632725  15.5 1.04967844 3.90746784  16 5.21972132 0.958802223  16 4.62159061 1.82634306  16 3.88091111 2.5758636  16 3.02052855 3.18424606  16 2.0669806 3.632725  16 1.04967844 3.90746784  16.5 5.21972132 0.958802223  16.5 4.62159061 1.82634306  16.5 3.88091111 2.5758636  16.5 3.02052855 3.18424606  16.5 2.0669806 3.632725  16.5 1.04967844 3.90746784  17 5.21972132 0.958802223  17 4.62159061 1.82634306  17 3.88091111 2.5758636  17 3.02052855 3.18424606  17 2.0669806 3.632725  17 1.04967844 3.90746784  17.5 5.21972132 0.958802223  17.5 4.62159061 1.82634306  17.5 3.88091111 2.5758636  17.5 3.02052855 3.18424606  17.
[...]
<PointData  Vectors="f_261141-0"> 
<DataArray  type="Float64"  Name="f_261141-0"  NumberOfComponents="3" format="ascii">0.0000000000000000e+00 0.0000000000000000e+00 0.0000000000000000e+00  0.0000000000000000e+00 0.0000000000000000e+00 1.1488747555882259e-01  0.0000000000000000e+00 2.6177843907270959e-01 0.0000000000000000e+00  1.4888439723240563e+00 0.0000000000000000e+00 3.1530935087070486e+00  2.1058798239946954e+00 2.0542831915994392e-01 3.2093803751439451e+00  2.0379290244816426e+00 0.0000000000000000e+00 3.1221366942142321e+00  0.0000000000000000e+00 0.0000000000000000e+00 5.5501811499234534e-02  0.0000000000000000e+00 0.0000000000000000e+00 6.7265704246880442e-02  0.0000000000000000e+00 0.0000000000000000e+00 6.8695450478040751e-02  0.0000000000000000e+00 7.9697011218442457e-03 1.1779855119202931e-01  0.0000000000000000e+00 5.0526324308192372e-02 1.4466184913937893e-01  0.0000000000000000e+00 9.4709067459773741e-02 1.3672296871347772e-01  0.0000000000000000e+00 1.3911239027861017e-01 1.1988499867078532e-01  0.0000000000000000e+00 1.8142512216962828e-01 1.0095604122108796e-01  0.0000000000000000e+00 2.2416842598098974e-01 5.3903922741767113e-02  0.0000000000000000e+00 2.0218273632187264e-01 0.0000000000000000e+00  0.0000000000000000e+00 1.5087870327245342e-01 0.0000000000000000e+00  0.0000000000000000e+00 1.0423330477915504e-01 0.0000000000000000e+00  0.0000000000000000e+00 6.3628993530236599e-02 0.0000000000000000e+00  0.0000000000000000e+00 2.9807056650694958e-02 0.0000000000000000e+00  1.8462858669882027e-02 0.0000000000000000e+00 1.1516393004183384e-01  3.3569185918912794e-02 0.0000000000000000e+00 1.1192489009425155e-01  4.9351709869913267e-02 0.0000000000000000e+00 1.1186448590967048e-01  6.5968768117909429e-02 0.0000000000000000e+00 1.1353421926979312e-01  8.5278136978493083e-02 0.0000000000000000e+00 1.1287586831557031e-01  9.9667983190873569e-02 0.0000000000000000e+00 1.1871185268255427e-01  1.1800287437508905e-01 0.0000000000000000e+00 1.2228987176434114e-01  1.3238988692303469e-01 0.0000000000000000e+00 1.2916044049584494e-01  1.4911561915943169e-01 0.0000000000000000e+00 1.3803906521395393e-01  1.6529710028866573e-01 0.0000000000000000e+00 1.5082838796472034e-01  1.8359539666459235e-01 0.0000000000000000e+00 1.5756310393482850e-01  2.0186848377907676e-01 0.0000000000000000e+00 1.5676092010352358e-01  2.1786641445554408e-01 0.0000000000000000e+00 1.6633244198832378e-01  2.3102713348602505e-01 0.0000000000000000e+00 1.7781491253016701e-01  2.5309367276215661e-01 0.0000000000000000e+00 1.8301463909501425e-01  2.6613903120480825e-01 0.0000000000000000e+00 1.9525864452171091e-01  2.8284677186168483e-01 0.0000000000000000e+00 2.0752965274027094e-01  2.9962913851584655e-01 0.0000000000000000e+00 2.2073155407496425e-01  3.1723604853376802e-01 0.0000000000000000e+00 2.2832687916437613e-01  3.3465840194113222e-01 0.0000000000000000e+00 2.3819532839920995e-01  3.5138138588408402e-01 0.0000000000000000e+00 2.4587314626929546e-01  3.7073748682681429e-01 0.0000000000000000e+00 2.6250380894838521e-01  3.8678200289029446e-01 0.0000000000000000e+00 2.7254085497309138e-01  4.0329738396825365e-01 0.0000000000000000e+00 2.8778166387382165e-01  4.2150236412046482e-01 0.0000000000000000e+00 3.0200760717165054e-01  4.3626536811908634e-01 0.0000000000000000e+00 3.1963455330720941e-01  4.5067214573895775e-01 0.0000000000000000e+00 3.4074876250989905e-01  4.6901489304508631e-01 0.0000000000000000e+00 3.5108040700495396e-01  4.8356297773210366e-01 0.0000000000000000e+00 3.7087868675925567e-01  4.9794407087086534e-01 0.0000000000000000e+00 3.9218089756891800e-01  5.2060279188745184e-01 0.0000000000000000e+00 3.9891828525052592e-01  5.3886536321088796e-01 0.0000000000000000e+00 4.2143279683113077e-01  5.5337519835375915e-01 0.0000000000000000e+00 4.4529623340298718e-01  5.7061619829703325e-01 0.0000000000000000e+00 4.6565411897316239e-01  5.8726324320035161e-01 0.0000000000000000e+00 4.8982800510781738e-01  6.0487448959311441e-01 0.0000000000000000e+00 5.0756925259593666e-01  6.1895995783830615e-01 0.0000000000000000e+00 5.3376755439577239e-01  6.3621642990788529e-01 0.0000000000000000e+00 5.5076046014957247e-01  6.5160614994233768e-01 0.0000000000000000e+00 5.7907783721691775e-01  6.6791165404808783e-01 0.0000000000000000e+00 5.9907836287954475e-01  6.8673393170963293e-01 0.0000000000000000e+00 6.2035422914148097e-01  6.9919612934408948e-01 0.0000000000000000e+00 6.4359812157689023e-01  7.1673156410746242e-01 0.0000000000000000e+00 6.6786107083949753e-01  7.2916225952018132e-01 0.0000000000000000e+00 7.0159421154812196e-01  7.4886866262895102e-01 0.0000000000000000e+00 7.2270899394374977e-01  7.6496395027233921e-01 0.0000000000000000e+00 7.5094906284741481e-01  7.8089515457018677e-01 0.0000000000000000e+00 7.7511316280625642e-01  7.9471012141020236e-01 0.0000000000000000e+00 8.0569029070287601e-01  8.1189648869712550e-01 0.0000000000000000e+00 8.3468966579369708e-01  8.2577840394748137e-01 0.0000000000000000e+00 8.6785628719541763e-01  8.4205190663696228e-01 0.0000000000000000e+00 9.0175498274242261e-01  8.5885970182993920e-01 0.0000000000000000e+00 9.3047845441671151e-01  8.7307402383928134e-01 0.0000000000000000e+00 9.6814008581125466e-01  8.8994659566119938e-01 0.0000000000000000e+00 9.9886157742216031e-01  9.0671213926764949e-01 0.0000000000000000e+00 1.0295262419958566e+00  9.1859582580004540e-01 0.0000000000000000e+00 1.0610477654182855e+00  9.3665064801337983e-01 0.0000000000000000e+00 1.0963346127318165e+00  9.5232124596818124e-01 0.0000000000000000e+00 1.1340118611922918e+00  9.6724157586234338e-01 0.0000000000000000e+00 1.1696394853319967e+00  9.7957995251833774e-01 0.0000000000000000e+00 1.2086154421346667e+00  9.9507989195693636e-01 0.0000000000000000e+00 1.2477482637467254e+00  1.0116273775227935e+00 0.0000000000000000e+00 1.2836724156382981e+00  1.0271302525853181e+00 0.0000000000000000e+00 1.3206449929035435e+00  1.0443325475955478e+00 0.0000000000000000e+00 1.3617758063641792e+00  1.0584580316222125e+00 0.0000000000000000e+00 1.4012271370989073e+00  1.0716958455751373e+00 0.0000000000000000e+00 1.4416637088127444e+00  1.0881210223228850e+00 0.0000000000000000e+00 1.4807143946500541e+00  1.1054972579854083e+00 0.0000000000000000e+00 1.5231337774467977e+00  1.1182394532444522e+00 0.0000000000000000e+00 1.5653588927135711e+00  1.1333523834807264e+00 0.0000000000000000e+00 1.6126022194703586e+00  1.1481461188264812e+00 0.0000000000000000e+00 1.6540606289314332e+00  1.1636084374483662e+00 0.0000000000000000e+00 1.6983083453025520e+00  1.1753923851594528e+00 0.0000000000000000e+00 1.7497139298816695e+00  1.1909189529235735e+00 0.0000000000000000e+00 1.7946869976153499e+00  1.2063831693476765e+00 0.0000000000000000e+00 1.8385418387218753e+00  1.2233350776106491e+00 0.0000000000000000e+00 1.8859788707419360e+00  1.2360305696052638e+00 0.0000000000000000e+00 1.9349614172534486e+00  1.2517249661150724e+00 0.0000000000000000e+00 1.9804409871680124e+00  1.2631753122971277e+00 0.0000000000000000e+00 2.0334119835371069e+00  1.2772323348566401e+00 0.0000000000000000e+00 2.0838646480684622e+00  1.2931992761101883e+00 0.0000000000000000e+00 2.1353268414609268e+00  1.3050196759109089e+00 0.0000000000000000e+00 2.1863343853140846e+00  1.3191441891449405e+00 0.0000000000000000e+00 2.2403704628509571e+00  1.3353918932109814e+00 0.0000000000000000e+00 2.2904706922103690e+00  1.3482244598664144e+00 0.0000000000000000e+00 2.3397956889677238e+00  1.3615054342227670e+00 0.0000000000000000e+00 2.3939945722423315e+00  1.3766940115533022e+00 0.0000000000000000e+00 2.4439882224784508e+00  1.3900869902236190e+00 0.0000000000000000e+00 2.4992272364599444e+00  1.4049540371435867e+00 0.0000000000000000e+00 2.5518597008976371e+00  1.4183007044584381e+00 0.0000000000000000e+00 2.6077719781816358e+00  1.4286260556441910e+00 0.0000000000000000e+00 2.6648451206638279e+00  1.4407703616845207e+00 0.0000000000000000e+00 2.7224592646165959e+00  1.4537796159518210e+00 0.0000000000000000e+00 2.7763321329608290e+00  1.4671138574670686e+00 0.0000000000000000e+00 2.8268632466094736e+00  1.4791033269377538e+00 0.0000000000000000e+00 2.8740003443783158e+00  1.4845651188954068e+00 0.0000000000000000e+00 2.9247207411628460e+00  1.4883871511607418e+00 0.0000000000000000e+00 2.9758885246477602e+00  1.4901248434241507e+00 0.0000000000000000e+00 3.0308117436336826e+00  1.4887555589912831e+00 0.0000000000000000e+00 3.0876850317303779e+00  1.5166144848141763e+00 -5.3186648048825409e-04 3.1515543130848522e+00  1.5623288338256425e+00 5.8164642673386498e-03 3.1632644825200988e+00  1.6253223736293585e+00 1.9660036213138631e-02 3.1829569228102375e+00  1.7136613619270156e+00 4.4105718643584244e-02 3.2016498886745919e+00  1.8224152238588465e+00 8.2823360256504941e-02 3.2233913244713097e+00  1.9628617607309744e+00 1.3506524453399735e-01 3.2292711502888465e+00  2.0865567704562968e+00 2.1551763670655125e-01 3.1394517597466578e+00  2.0657711805966406e+00 2.2449533226728585e-01 3.0679084797300127e+00  2.0454254414384963e+00 2.3455351240754566e-01 2.9962027046815325e+00  2.0263832621976512e+00 2.4228041030041250e-01 2.9240579944609570e+00  2.0045333671219328e+00 2.4999337572095601e-01 2.8549600905592234e+00  1.9809056126159299e+00 2.5413714944588467e-01 2.7880820778170956e+00  1.9568086235386442e+00 2.5806852630748145e-01 2.7226245925402512e+00  1.9332203327989514e+00 2.5909092661184180e-01 2.6582895683048808e+00  1.9104910479931005e+00 2.5979656873090956e-01 2.5943738473865281e+00  1.8875512175827671e+00 2.6005415357985595e-01 2.5325888553533682e+00  1.8658308460922617e+00 2.6076670373101374e-01 2.4709673073512626e+00  1.8441209601017035e+00 2.5852142846531284e-01 2.4125009613062205e+00  1.8229475472671903e+00 2.5812943107971947e-01 2.3540273155104123e+00  1.8019883784276642e+00 2.5766243089424495e-01 2.2971393065263537e+00  1.7813978397233001e+00 2.5698772484094468e-01 2.2428077328069480e+00  1.7626328633213477e+00 2.5754035552808169e-01 2.1880720091893306e+00  1.7419402103547141e+00 2.5690402250653510e-01 2.1318689913678490e+00  1.7221715341360213e+00 2.5400701356388183e-01 2.0787834353108980e+00  1.7015324814129438e+00 2.5359219530487337e-01 2.0260981199852344e+00  1.6810033720956312e+00 2.5238684540356776e-01 1.9734105533924153e+00  1.6613403285768580e+00 2.5008998581553121e-01 1.9212343572557595e+00  1.6421053641061820e+00 2.5139571221745066e-01 1.8671025258634186e+00  1.6226539348779017e+00 2.4946781361754172e-01 1.8173397195257515e+00  1.6024579231032792e+00 2.5261918298114866e-01 1.7671652940262539e+00  1.5822613046269711e+00 2.5127093154660302e-01 1.7192551587278324e+00  1.5623633776563175e+00 2.4915669915153851e-01 1.6724413055409564e+00  1.5425459529241692e+00 2.4957741788918927e-01 1.6261323458416357e+00  1.5227003524233791e+00 2.5082582868851838e-01 1.5799715680079249e+00  1.5029089341741018e+00 2.4811645896872181e-01 1.5357631133331280e+00  1.4833120258679595e+00 2.4964376547000516e-01 1.4905561570890882e+00  1.4634536476356950e+00 2.4953958194090770e-01 1.4468681948660433e+00  1.4435636336905999e+00 2.4736262294784031e-01 1.4051982263405904e+00  1.4233597625647958e+00 2.4903640148603981e-01 1.3631923740723679e+00  1.4035216310326644e+00 2.4999312878171678e-01 1.3222121196871215e+00  1.3832960070546183e+00 2.5017061738957547e-01 1.2818286062932664e+00  1.3634197143836710e+00 2.5190899086641932e-01 1.2414551355746390e+00  1.3429643392245176e+00 2.5236806240154314e-01 1.2022461587981133e+00  1.3223602921433479e+00 2.5136229958882178e-01 1.1633507508565855e+00  1.3020901871975818e+00 2.4961012006805378e-01 1.1257199482728035e+00  1.2811998620286571e+00 2.5285340395460632e-01 1.0884077884221199e+00  1.2604815098897266e+00 2.5413524995814740e-01 1.0508077923155441e+00  1.2395099309601505e+00 2.5140195648022745e-01 1.0151189963673770e+00  1.2177593759500311e+00 2.5387417589734873e-01 9.7719792742959166e-01  1.1969077457211899e+00 2.5259440178585729e-01 9.3981754794319505e-01  1.1764603591038085e+00 2.5021330910589584e-01 9.0460118082544350e-01  1.1558105627011064e+00 2.5119733549601192e-01 8.6940539742665179e-01  1.1345860197138617e+00 2.5204929114241686e-01 8.3510290877375826e-01  1.1137984812917570e+00 2.4983812522835738e-01 8.0299543733163425e-01  1.0927662186031193e+00 2.5056169142320361e-01 7.6951837309416771e-01  1.0721204496756263e+00 2.4914469848841928e-01 7.3670179844568995e-01  1.0507156357273071e+00 2.4865104457915671e-01 7.0619726631685920e-01  1.0298655961529859e+00 2.4772573569957954e-01 6.7687808855972031e-01  1.0091187239633550e+00 2.4916867694124853e-01 6.4737320113717323e-01  9.8775992600922513e-01 2.4969972362254550e-01 6.1827593910901579e-01  9.6677246869764089e-01 2.4785358469558352e-01 5.9155307389081357e-01  9.4562890653887688e-01 2.4778672918681754e-01 5.6380508201682944e-01  9.2478917701884356e-01 2.4877768770623279e-01 5.3623764030423549e-01  9.0388354053010966e-01 2.4865587056623933e-01 5.1024750150905074e-01  8.8230192203921232e-01 2.4861155411554528e-01 4.8597368830462084e-01  8.6024074281977381e-01 2.4977161638752474e-01 4.6168170237679518e-01  8.3924189101188196e-01 2.4742524301651569e-01 4.3887964478616998e-01  8.1756854522736844e-01 2.4832480824060121e-01 4.1687597940311422e-01  7.9621760423523613e-01 2.4927247530472393e-01 3.9467699151428609e-01  7.7483151416059248e-01 2.4932487327738170e-01 3.7337701293325404e-01  7.5362617923537956e-01 2.4953902574664411e-01 3.5263439586460316e-01  7.3232494714596030e-01 2.5175552624182124e-01 3.3174614655488716e-01  7.1038960518297212e-01 2.5057128178748089e-01 3.1462550958295099e-01  6.8952660823673761e-01 2.5277428474120156e-01 2.9506634453524039e-01  6.6767042543133415e-01 2.5141569519191459e-01 2.7709330620053474e-01  6.4606155568350221e-01 2.5173314114321060e-01 2.5795730892761637e-01  6.2488942693406968e-01 2.5069602448390249e-01 2.3944777970582201e-01  6.0386884486542558e-01 2.5131076168030764e-01 2.2153855847271103e-01  5.8288198058601037e-01 2.5016618479384256e-01 2.0534147040525808e-01  5.6122689018970440e-01 2.5059673023870260e-01 1.8872118008000138e-01  5.3993159677528968e-01 2.4949147372628200e-01 1.7294621470884444e-01  5.1797654808579363e-01 2.5117635826877194e-01 1.5725290584219045e-01  4.9626410374236279e-01 2.5127011257471549e-01 1.4346271865010457e-01  4.7420667014774415e-01 2.5086545030538199e-01 1.3015696993757753e-01  4.5295250311936280e-01 2.5102279221042983e-01 1.1784129510790951e-01  4.3192806648627363e-01 2.5181652099313701e-01 1.0425620452558645e-01  4.1010509744471885e-01 2.5001498864352878e-01 9.3126075746422982e-02  3.8890493753598321e-01 2.4961209262335113e-01 8.1935913231838131e-02  3.6728770651485909e-01 2.5232389839752845e-01 7.0360570117591642e-02  3.4573032886666161e-01 2.5258596839212316e-01 6.1426989964384102e-02  3.2382055962989992e-01 2.5238713071202484e-01 5.3446354845814364e-02  3.0223437429979200e-01 2.5262897365396630e-01 4.4461309485034739e-02  2.8019038587564771e-01 2.5285335109825846e-01 3.5648722525334034e-02  2.5843241678219292e-01 2.5142611888665345e-01 2.9543478114728589e-02  2.3702224264419322e-01 2.5179325410744019e-01 2.3272057647147220e-02  2.1551427516586710e-01 2.5185354860969894e-01 1.7797865342186598e-02  1.9463137024230964e-01 2.5418473535668246e-01 1.2591278070040950e-02  1.7315505279637153e-01 2.5447267558315145e-01 9.0333841008437693e-03  1.5179440627888263e-01 2.5461275246412823e-01 6.0694512205475611e-03  1.3051572787971871e-01 2.5597931443364380e-01 3.0528940547323068e-03  1.0865456526161311e-01 2.5861218646089279e-01 2.0734877679933199e-04  8.7072207883185551e-02 2.5678617779528590e-01 1.4448963385257573e-03  6.5045372800612997e-02 2.5921674590850236e-01 9.2847089005894455e-04  4.2733191093019041e-02 2.5981216995081335e-01 0.0000000000000000e+00  2.0598205141663134e-02 2.6124704274867316e-01 0.0000000000000000e+00  2.0924863364017003e+00 1.5510887635374457e-01 3.1802545506994826e+00  2.0768777776059886e+00 1.1736274768113311e-01 3.1575845997012570e+00  2.0585484062001740e+00 7.9892849833559390e-02 3.1378674461629448e+00  2.0588379410200939e+00 5.7493517215374372e-02 3.1398025044196380e+00  2.0447785188931435e+00 2.4778392411093197e-02 3.1282448627097299e+00  2.0151789629742667e+00 0.0000000000000000e+00 3.0480115738988012e+00  1.9967244552418661e+00 0.0000000000000000e+00 2.9831982860742015e+00  1.9771881557903113e+00 0.0000000000000000e+00 2.9162113450033771e+00  1.9595994726685457e+00 0.0000000000000000e+00 2.8551932716109492e+00  1.9379769523185970e+00 0.0000000000000000e+00 2.8008047398352711e+00  1.9221918390422794e+00 0.0000000000000000e+00 2.7410642425056095e+00  1.9032119889413006e+00 0.0000000000000000e+00 2.6882698256586881e+00  1.8862929379367055e+00 0.0000000000000000e+00 2.6338088726740203e+00  1.8729379963039148e+00 0.0000000000000000e+00 2.5723607334240159e+00  1.8534192119873620e+00 0.0000000000000000e+00 2.5254912647756123e+00  1.8355536069980560e+00 0.0000000000000000e+00 2.4743630631460571e+00  1.8186929075078020e+00 0.0000000000000000e+00 2.4158038579291485e+00  1.8019027791250490e+00 0.0000000000000000e+00 2.3587434819051802e+00  1.7868372833570030e+00 0.0000000000000000e+00 2.3014179305531326e+00  1.7670735744771471e+00 0.0000000000000000e+00 2.2577556982886118e+00  1.7451443833182272e+00 0.0000000000000000e+00 2.2073339213037118e+00  1.7248299395273134e+00 0.0000000000000000e+00 2.1552530562541166e+00  1.7107069619343873e+00 0.0000000000000000e+00 2.0961494125898357e+00  1.6930004420017257e+00 0.0000000000000000e+00 2.0547048068591605e+00  1.6733573495671299e+00 0.0000000000000000e+00 1.9998695906051052e+00  1.6577132043357423e+00 0.0000000000000000e+00 1.9448481251728098e+00  1.6337253627636652e+00 0.0000000000000000e+00 1.9057608916119400e+00  1.6171604003794062e+00 0.0000000000000000e+00 1.8499647621711619e+00  1.5997343237031472e+00 0.0000000000000000e+00 1.8073411089461378e+00  1.5771500580945037e+00 0.0000000000000000e+00 1.7572520706594945e+00  1.5560714867841101e+00 0.0000000000000000e+00 1.7090778464424707e+00  1.5397431479149544e+00 0.0000000000000000e+00 1.6539585251776248e+00  1.5191558324014569e+00 0.0000000000000000e+00 1.6165735297040025e+00  1.5002300617212174e+00 0.0000000000000000e+00 1.5687342667311488e+00  1.4817794724977631e+00 0.0000000000000000e+00 1.5286310849837235e+00  1.4579615799579693e+00 0.0000000000000000e+00 1.4879819362065989e+00  1.4360126953578285e+00 0.0000000000000000e+00 1.4438639438630003e+00  1.4206631534515117e+00 0.0000000000000000e+00 1.3926690535929727e+00  1.4009380758092462e+00 0.0000000000000000e+00 1.3564296470934538e+00  1.3827543488899481e+00 0.0000000000000000e+00 1.3078463600444519e+00  1.3602942479482321e+00 0.0000000000000000e+00 1.2768661590591306e+00  1.3384653399036057e+00 0.0000000000000000e+00 1.2320692780669908e+00  1.3218367218521516e+00 0.0000000000000000e+00 1.1897494294963176e+00  1.3009473794268016e+00 0.0000000000000000e+00 1.1574487805550788e+00  1.2811620610841601e+00 0.0000000000000000e+00 1.1109032172630537e+00  1.2581398064626903e+00 0.0000000000000000e+00 1.0817430538883492e+00  1.2354378810894036e+00 0.0000000000000000e+00 1.0391120823448556e+00  1.2176082789717320e+00 0.0000000000000000e+00 9.9723832927631728e-01  1.1946397732472513e+00 0.0000000000000000e+00 9.7206518552147458e-01  1.1710548036963790e+00 0.0000000000000000e+00 9.3998460832607200e-01  1.1527726586301257e+00 0.0000000000000000e+00 8.9877905139347480e-01  1.1302496451320423e+00 0.0000000000000000e+00 8.7306730426710555e-01  1.1129528216578917e+00 0.0000000000000000e+00 8.3387683587663552e-01  1.0918091872811373e+00 0.0000000000000000e+00 8.0877180165021245e-01  1.0693578187085271e+00 0.0000000000000000e+00 7.7604609456049556e-01  1.0463359592826791e+00 0.0000000000000000e+00 7.4526603726582952e-01  1.0277765987884484e+00 0.0000000000000000e+00 7.0965820739151753e-01  1.0048872982894295e+00 0.0000000000000000e+00 6.8947169094373850e-01  9.8702608962697991e-01 0.0000000000000000e+00 6.5242984777683122e-01  9.6569081423715608e-01 0.0000000000000000e+00 6.3012354290659967e-01 