<?xml version="1.0"?>
<VTKFile type="UnstructuredGrid"  version="0.1"  >
<UnstructuredGrid>
<Piece  NumberOfPoints="3069" NumberOfCells="12882">
<Points>
<DataArray  type="Float64"  NumberOfComponents="3"  format="ascii">0 0 0  0 0 4  0 5.65685415 0  50 0 4  50 5.65685415 0  50 0 0  0 0 1  0 0 2  0 0 3  0 1.04967844 3.90746784  0 2.0669806 3.632725  0 3.02052855 3.18424606  0 3.88091111 2.5758636  0 4.62159061 1.82634306  0 5.21972132 0.958802283  0 4.71404505 0  0 3.77123618 0  0 2.82842708 0  0 1.88561809 0  0 0.942809045 0  0.5 0 4  1 0 4  1.5 0 4  2 0 4  2.5 0 4  3 0 4  3.5 0 4  4 0 4  4.5 0 4  5 0 4  5.5 0 4  6 0 4  6.5 0 4  7 0 4  7.5 0 4  8 0 4  8.5 0 4  9 0 4  9.5 0 4  10 0 4  10.5 0 4  11 0 4  11.5 0 4  12 0 4  12.5 0 4  13 0 4  13.5 0 4  14 0 4  14.5 0 4  15 0 4  15.5 0 4  16 0 4  16.5 0 4  17 0 4  17.5 0 4  18 0 4  18.5 0 4  19 0 4  19.5 0 4  20 0 4  20.5 0 4  21 0 4  21.5 0 4  22 0 4  22.5 0 4  23 0 4  23.5 0 4  24 0 4  24.5 0 4  25 0 4  25.5 0 4  26 0 4  26.5 0 4  27 0 4  27.5 0 4  28 0 4  28.5 0 4  29 0 4  29.5 0 4  30 0 4  30.5 0 4  31 0 4  31.5 0 4  32 0 4  32.5 0 4  33 0 4  33.5 0 4  34 0 4  34.5 0 4  35 0 4  35.5 0 4  36 0 4  36.5 0 4  37 0 4  37.5 0 4  38 0 4  38.5 0 4  39 0 4  39.5 0 4  40 0 4  40.5 0 4  41 0 4  41.5 0 4  42 0 4  42.5 0 4  43 0 4  43.5 0 4  44 0 4  44.5 0 4  45 0 4  45.5 0 4  46 0 4  46.5 0 4  47 0 4  47.5 0 4  48 0 4  48.5 0 4  49 0 4  49.5 0 4  50 1.04967844 3.90746784  50 2.0669806 3.632725  50 3.02052855 3.18424606  50 3.88091111 2.5758636  50 4.62159061 1.82634306  50 5.21972132 0.958802283  49.5 5.65685415 0  49 5.65685415 0  48.5 5.65685415 0  48 5.65685415 0  47.5 5.65685415 0  47 5.65685415 0  46.5 5.65685415 0  46 5.65685415 0  45.5 5.65685415 0  45 5.65685415 0  44.5 5.65685415 0  44 5.65685415 0  43.5 5.65685415 0  43 5.65685415 0  42.5 5.65685415 0  42 5.65685415 0  41.5 5.65685415 0  41 5.65685415 0  40.5 5.65685415 0  40 5.65685415 0  39.5 5.65685415 0  39 5.65685415 0  38.5 5.65685415 0  38 5.65685415 0  37.5 5.65685415 0  37 5.65685415 0  36.5 5.65685415 0  36 5.65685415 0  35.5 5.65685415 0  35 5.65685415 0  34.5 5.65685415 0  34 5.65685415 0  33.5 5.65685415 0  33 5.65685415 0  32.5 5.65685415 0  32 5.65685415 0  31.5 5.65685415 0  31 5.65685415 0  30.5 5.65685415 0  30 5.65685415 0  29.5 5.65685415 0  29 5.65685415 0  28.5 5.65685415 0  28 5.65685415 0  27.5 5.65685415 0  27 5.65685415 0  26.5 5.65685415 0  26 5.65685415 0  25.5 5.65685415 0  25 5.65685415 0  24.5 5.65685415 0  24 5.65685415 0  23.5 5.65685415 0  23 5.65685415 0  22.5 5.65685415 0  22 5.65685415 0  21.5 5.65685415 0  21 5.65685415 0  20.5 5.65685415 0  20 5.65685415 0  19.5 5.65685415 0  19 5.65685415 0  18.5 5.65685415 0  18 5.65685415 0  17.5 5.65685415 0  17 5.65685415 0  16.5 5.65685415 0  16 5.65685415 0  15.5 5.65685415 0  15 5.65685415 0  14.5 5.65685415 0  14 5.65685415 0  13.5 5.65685415 0  13 5.65685415 0  12.5 5.65685415 0  12 5.65685415 0  11.5 5.65685415 0  11 5.65685415 0  10.5 5.65685415 0  10 5.65685415 0  9.5 5.65685415 0  9 5.65685415 0  8.5 5.65685415 0  8 5.65685415 0  7.5 5.65685415 0  7 5.65685415 0  6.5 5.65685415 0  6 5.65685415 0  5.5 5.65685415 0  5 5.65685415 0  4.5 5.65685415 0  4 5.65685415 0  3.5 5.65685415 0  3 5.65685415 0  2.5 5.65685415 0  2 5.65685415 0  1.5 5.65685415 0  1 5.65685415 0  0.5 5.65685415 0  50 4.71404505 0  50 3.77123618 0  50 2.82842708 0  50 1.88561809 0  50 0.942809045 0  49.5 0 0  49 0 0  48.5 0 0  48 0 0  47.5 0 0  47 0 0  46.5 0 0  46 0 0  45.5 0 0  45 0 0  44.5 0 0  44 0 0  43.5 0 0  43 0 0  42.5 0 0  42 0 0  41.5 0 0  41 0 0  40.5 0 0  40 0 0  39.5 0 0  39 0 0  38.5 0 0  38 0 0  37.5 0 0  37 0 0  36.5 0 0  36 0 0  35.5 0 0  35 0 0  34.5 0 0  34 0 0  33.5 0 0  33 0 0  32.5 0 0  32 0 0  31.5 0 0  31 0 0  30.5 0 0  30 0 0  29.5 0 0  29 0 0  28.5 0 0  28 0 0  27.5 0 0  27 0 0  26.5 0 0  26 0 0  25.5 0 0  25 0 0  24.5 0 0  24 0 0  23.5 0 0  23 0 0  22.5 0 0  22 0 0  21.5 0 0  21 0 0  20.5 0 0  20 0 0  19.5 0 0  19 0 0  18.5 0 0  18 0 0  17.5 0 0  17 0 0  16.5 0 0  16 0 0  15.5 0 0  15 0 0  14.5 0 0  14 0 0  13.5 0 0  13 0 0  12.5 0 0  12 0 0  11.5 0 0  11 0 0  10.5 0 0  10 0 0  9.5 0 0  9 0 0  8.5 0 0  8 0 0  7.5 0 0  7 0 0  6.5 0 0  6 0 0  5.5 0 0  5 0 0  4.5 0 0  4 0 0  3.5 0 0  3 0 0  2.5 0 0  2 0 0  1.5 0 0  1 0 0  0.5 0 0  50 0 1  50 0 2  50 0 3  0 2.33524275 0.893602192  0 2.87561393 1.93323028  0 4.2367816 0.876864135  0 2.00050235 2.65534091  0 0.981494486 2.34323239  0 3.78543234 1.61830366  0 3.30545568 0.887000024  0 0.812916458 1.58408713  0 1.71948838 1.71268857  0 1.28267908 0.8650629520000001  0 1.21973121 3.10775328  0.5 5.21972132 0.958802223  0.5 4.62159061 1.82634306  0.5 3.88091111 2.5758636  0.5 3.02052855 3.18424606  0.5 2.0669806 3.632725  0.5 1.04967844 3.90746784  1 5.21972132 0.958802223  1 4.62159061 1.82634306  1 3.88091111 2.5758636  1 3.02052855 3.18424606  1 2.0669806 3.632725  1 1.04967844 3.90746784  1.5 5.21972132 0.958802223  1.5 4.62159061 1.82634306  1.5 3.88091111 2.5758636  1.5 3.02052855 3.18424606  1.5 2.0669806 3.632725  1.5 1.04967844 3.90746784  2 5.21972132 0.958802223  2 4.62159061 1.82634306  2 3.88091111 2.5758636  2 3.02052855 3.18424606  2 2.0669806 3.632725  2 1.04967844 3.90746784  2.5 5.21972132 0.958802223  2.5 4.62159061 1.82634306  2.5 3.88091111 2.5758636  2.5 3.02052855 3.18424606  2.5 2.0669806 3.632725  2.5 1.04967844 3.90746784  3 5.21972132 0.958802223  3 4.62159061 1.82634306  3 3.88091111 2.5758636  3 3.02052855 3.18424606  3 2.0669806 3.632725  3 1.04967844 3.90746784  3.5 5.21972132 0.958802223  3.5 4.62159061 1.82634306  3.5 3.88091111 2.5758636  3.5 3.02052855 3.18424606  3.5 2.0669806 3.632725  3.5 1.04967844 3.90746784  4 5.21972132 0.958802223  4 4.62159061 1.82634306  4 3.88091111 2.5758636  4 3.02052855 3.18424606  4 2.0669806 3.632725  4 1.04967844 3.90746784  4.5 5.21972132 0.958802223  4.5 4.62159061 1.82634306  4.5 3.88091111 2.5758636  4.5 3.02052855 3.18424606  4.5 2.0669806 3.632725  4.5 1.04967844 3.90746784  5 5.21972132 0.958802223  5 4.62159061 1.82634306  5 3.88091111 2.5758636  5 3.02052855 3.18424606  5 2.0669806 3.632725  5 1.04967844 3.90746784  5.5 5.21972132 0.958802223  5.5 4.62159061 1.82634306  5.5 3.88091111 2.5758636  5.5 3.02052855 3.18424606  5.5 2.0669806 3.632725  5.5 1.04967844 3.90746784  6 5.21972132 0.958802223  6 4.62159061 1.82634306  6 3.88091111 2.5758636  6 3.02052855 3.18424606  6 2.0669806 3.632725  6 1.04967844 3.90746784  6.5 5.21972132 0.958802223  6.5 4.62159061 1.82634306  6.5 3.88091111 2.5758636  6.5 3.02052855 3.18424606  6.5 2.0669806 3.632725  6.5 1.04967844 3.90746784  7 5.21972132 0.958802223  7 4.62159061 1.82634306  7 3.88091111 2.5758636  7 3.02052855 3.18424606  7 2.0669806 3.632725  7 1.04967844 3.90746784  7.5 5.21972132 0.958802223  7.5 4.62159061 1.82634306  7.5 3.88091111 2.5758636  7.5 3.02052855 3.18424606  7.5 2.0669806 3.632725  7.5 1.04967844 3.90746784  8 5.21972132 0.958802223  8 4.62159061 1.82634306  8 3.88091111 2.5758636  8 3.02052855 3.18424606  8 2.0669806 3.632725  8 1.04967844 3.90746784  8.5 5.21972132 0.958802223  8.5 4.62159061 1.82634306  8.5 3.88091111 2.5758636  8.5 3.02052855 3.18424606  8.5 2.0669806 3.632725  8.5 1.04967844 3.90746784  9 5.21972132 0.958802223  9 4.62159061 1.82634306  9 3.88091111 2.5758636  9 3.02052855 3.18424606  9 2.0669806 3.632725  9 1.04967844 3.90746784  9.5 5.21972132 0.958802223  9.5 4.62159061 1.82634306  9.5 3.88091111 2.5758636  9.5 3.02052855 3.18424606  9.5 2.0669806 3.632725  9.5 1.04967844 3.90746784  10 5.21972132 0.958802223  10 4.62159061 1.82634306  10 3.88091111 2.5758636  10 3.02052855 3.18424606  10 2.0669806 3.632725  10 1.04967844 3.90746784  10.5 5.21972132 0.958802223  10.5 4.62159061 1.82634306  10.5 3.88091111 2.5758636  10.5 3.02052855 3.18424606  10.5 2.0669806 3.632725  10.5 1.04967844 3.90746784  11 5.21972132 0.958802223  11 4.62159061 1.82634306  11 3.88091111 2.5758636  11 3.02052855 3.18424606  11 2.0669806 3.632725  11 1.04967844 3.90746784  11.5 5.21972132 0.958802223  11.5 4.62159061 1.82634306  11.5 3.88091111 2.5758636  11.5 3.02052855 3.18424606  11.5 2.0669806 3.632725  11.5 1.04967844 3.90746784  12 5.21972132 0.958802223  12 4.62159061 1.82634306  12 3.88091111 2.5758636  12 3.02052855 3.18424606  12 2.0669806 3.632725  12 1.04967844 3.90746784  12.5 5.21972132 0.958802223  12.5 4.62159061 1.82634306  12.5 3.88091111 2.5758636  12.5 3.02052855 3.18424606  12.5 2.0669806 3.632725  12.5 1.04967844 3.90746784  13 5.21972132 0.958802223  13 4.62159061 1.82634306  13 3.88091111 2.5758636  13 3.02052855 3.18424606  13 2.0669806 3.632725  13 1.04967844 3.90746784  13.5 5.21972132 0.958802223  13.5 4.62159061 1.82634306  13.5 3.88091111 2.5758636  13.5 3.02052855 3.18424606  13.5 2.0669806 3.632725  13.5 1.04967844 3.90746784  14 5.21972132 0.958802223  14 4.62159061 1.82634306  14 3.88091111 2.5758636  14 3.02052855 3.18424606  14 2.0669806 3.632725  14 1.04967844 3.90746784  14.5 5.21972132 0.958802223  14.5 4.62159061 1.82634306  14.5 3.88091111 2.5758636  14.5 3.02052855 3.18424606  14.5 2.0669806 3.632725  14.5 1.04967844 3.90746784  15 5.21972132 0.958802223  15 4.62159061 1.82634306  15 3.88091111 2.5758636  15 3.02052855 3.18424606  15 2.0669806 3.632725  15 1.04967844 3.90746784  15.5 5.21972132 0.958802223  15.5 4.62159061 1.82634306  15.5 3.88091111 2.5758636  15.5 3.02052855 3.18424606  15.5 2.0669806 3.632725  15.5 1.04967844 3.90746784  16 5.21972132 0.958802223  16 4.62159061 1.82634306  16 3.88091111 2.5758636  16 3.02052855 3.18424606  16 2.0669806 3.632725  16 1.04967844 3.90746784  16.5 5.21972132 0.958802223  16.5 4.62159061 1.82634306  16.5 3.88091111 2.5758636  16.5 3.02052855 3.18424606  16.5 2.0669806 3.632725  16.5 1.04967844 3.90746784  17 5.21972132 0.958802223  17 4.62159061 1.82634306  17 3.88091111 2.5758636  17 3.02052855 3.18424606  17 2.0669806 3.632725  17 1.04967844 3.90746784  17.5 5.21972132 0.958802223  17.5 4.62159061 1.82634306  17.5 3.88091111 2.5758636  17.5 3.02052855 3.18424606  17.
[...]
<PointData  Vectors="f_261141-0"> 
<DataArray  type="Float64"  Name="f_261141-0"  NumberOfComponents="3" format="ascii">0.0000000000000000e+00 0.0000000000000000e+00 0.0000000000000000e+00  0.0000000000000000e+00 0.0000000000000000e+00 7.5680087736114754e-01  0.0000000000000000e+00 1.0332184952917001e+00 0.0000000000000000e+00  9.4722575624561820e+00 0.0000000000000000e+00 -2.1333841281046925e-01  9.1149003716620101e+00 1.0898262417491098e+00 -1.1827691824319522e+00  9.1976041706080682e+00 0.0000000000000000e+00 -1.0954568623398409e+00  0.0000000000000000e+00 0.0000000000000000e+00 1.7813712178276017e-01  0.0000000000000000e+00 0.0000000000000000e+00 3.7393792719035940e-01  0.0000000000000000e+00 0.0000000000000000e+00 5.7524521843893783e-01  0.0000000000000000e+00 2.0860886975015916e-01 7.3446357603071333e-01  0.0000000000000000e+00 3.9429744301598157e-01 6.7034303699483699e-01  0.0000000000000000e+00 5.6851994213624490e-01 5.8382557781870048e-01  0.0000000000000000e+00 7.2303113886237935e-01 4.6935908337158172e-01  0.0000000000000000e+00 8.5446758471635276e-01 3.2828856911735382e-01  0.0000000000000000e+00 9.5910122707026169e-01 1.7167756087370328e-01  0.0000000000000000e+00 8.6558067629607482e-01 0.0000000000000000e+00  0.0000000000000000e+00 6.9613585402257316e-01 0.0000000000000000e+00  0.0000000000000000e+00 5.2636245025261752e-01 0.0000000000000000e+00  0.0000000000000000e+00 3.5486676708722709e-01 0.0000000000000000e+00  0.0000000000000000e+00 1.7923746025293361e-01 0.0000000000000000e+00  9.3026942473515964e-02 0.0000000000000000e+00 7.5748346085641460e-01  1.8683310452718985e-01 0.0000000000000000e+00 7.5763950468275165e-01  2.8060611893887150e-01 0.0000000000000000e+00 7.5807830046463065e-01  3.7500476427974627e-01 0.0000000000000000e+00 7.5676212490367711e-01  4.6711472107623286e-01 0.0000000000000000e+00 7.5914420881935074e-01  5.6201773473473748e-01 0.0000000000000000e+00 7.5588681270208502e-01  6.5450934854467613e-01 0.0000000000000000e+00 7.5519644619114246e-01  7.4941134979743795e-01 0.0000000000000000e+00 7.5128465601691785e-01  8.4302720118856700e-01 0.0000000000000000e+00 7.4812974622743156e-01  9.3642270245076031e-01 0.0000000000000000e+00 7.4423657203271965e-01  1.0293351328663385e+00 0.0000000000000000e+00 7.4251397053867052e-01  1.1228847347814113e+00 0.0000000000000000e+00 7.4214456390459793e-01  1.2165978241809379e+00 0.0000000000000000e+00 7.4015566005232514e-01  1.3118332880205119e+00 0.0000000000000000e+00 7.3446826128760612e-01  1.4039774209300027e+00 0.0000000000000000e+00 7.3321578314810065e-01  1.4990405417973172e+00 0.0000000000000000e+00 7.2904182071860457e-01  1.5925848622595573e+00 0.0000000000000000e+00 7.2524895911729181e-01  1.6863291601705388e+00 0.0000000000000000e+00 7.2063868646790108e-01  1.7792947040380360e+00 0.0000000000000000e+00 7.1801230329116805e-01  1.8724188356105509e+00 0.0000000000000000e+00 7.1462748917129693e-01  1.9656899281085722e+00 0.0000000000000000e+00 7.1294086974769311e-01  2.0587881026621084e+00 0.0000000000000000e+00 7.0668385062696359e-01  2.1527697039586373e+00 0.0000000000000000e+00 7.0329698718939315e-01  2.2465644269374008e+00 0.0000000000000000e+00 6.9759337563940826e-01  2.3393087040963780e+00 0.0000000000000000e+00 6.9456027156898237e-01  2.4339520583652279e+00 0.0000000000000000e+00 6.8712614601646815e-01  2.5279578785747598e+00 0.0000000000000000e+00 6.8041639159229650e-01  2.6206901034275574e+00 0.0000000000000000e+00 6.7635252446442662e-01  2.7147228932834162e+00 0.0000000000000000e+00 6.6974512702691313e-01  2.8091940720185673e+00 0.0000000000000000e+00 6.6060542267603517e-01  2.8998194283201073e+00 0.0000000000000000e+00 6.6065725394483266e-01  2.9925764293989272e+00 0.0000000000000000e+00 6.5201082749872308e-01  3.0865203714589806e+00 0.0000000000000000e+00 6.4381601443378667e-01  3.1805812338392605e+00 0.0000000000000000e+00 6.3560339284133738e-01  3.2752975025775570e+00 0.0000000000000000e+00 6.2730828182934772e-01  3.3693402864469642e+00 0.0000000000000000e+00 6.2017585784024776e-01  3.4637535385617397e+00 0.0000000000000000e+00 6.1248738511251122e-01  3.5568226700824908e+00 0.0000000000000000e+00 6.0672572588439921e-01  3.6512753229710655e+00 0.0000000000000000e+00 5.9613979564359676e-01  3.7444643827689754e+00 0.0000000000000000e+00 5.8910257389246057e-01  3.8364476313865050e+00 0.0000000000000000e+00 5.8265774980137475e-01  3.9310933474116356e+00 0.0000000000000000e+00 5.7409679776695377e-01  4.0236831028629627e+00 0.0000000000000000e+00 5.6572809827935511e-01  4.1190667333636544e+00 0.0000000000000000e+00 5.5216743837072069e-01  4.2111756886040661e+00 0.0000000000000000e+00 5.4417050652166776e-01  4.3043001921504205e+00 0.0000000000000000e+00 5.3403040394057077e-01  4.3976210214784794e+00 0.0000000000000000e+00 5.2602772351692129e-01  4.4917431657166436e+00 0.0000000000000000e+00 5.1516286990805593e-01  4.5851696390382521e+00 0.0000000000000000e+00 5.0550267561070283e-01  4.6792305658730493e+00 0.0000000000000000e+00 4.9447118116301786e-01  4.7732950690012466e+00 0.0000000000000000e+00 4.8227452747853045e-01  4.8660286435541469e+00 0.0000000000000000e+00 4.7340437291717308e-01  4.9604102798459886e+00 0.0000000000000000e+00 4.5973338484553800e-01  5.0529678973239269e+00 0.0000000000000000e+00 4.5036049545374474e-01  5.1466982703907966e+00 0.0000000000000000e+00 4.3779724418445837e-01  5.2416666759331685e+00 0.0000000000000000e+00 4.2584113227563170e-01  5.3349535858414363e+00 0.0000000000000000e+00 4.1296050317692434e-01  5.4277236139922840e+00 0.0000000000000000e+00 4.0138562629270846e-01  5.5211500397702702e+00 0.0000000000000000e+00 3.9065157472688866e-01  5.6156917058735525e+00 0.0000000000000000e+00 3.7559292393407412e-01  5.7091833520814639e+00 0.0000000000000000e+00 3.6026114784536001e-01  5.8018757407504680e+00 0.0000000000000000e+00 3.4942904903129607e-01  5.8957535459137924e+00 0.0000000000000000e+00 3.3470233288644236e-01  5.9895065142350532e+00 0.0000000000000000e+00 3.2030836449313271e-01  6.0820732981502736e+00 0.0000000000000000e+00 3.0978292938362373e-01  6.1767227358757895e+00 0.0000000000000000e+00 2.9447003745969919e-01  6.2707103437528264e+00 0.0000000000000000e+00 2.8042504596872020e-01  6.3633580126872529e+00 0.0000000000000000e+00 2.6626460388897544e-01  6.4574687251696608e+00 0.0000000000000000e+00 2.4988623289152517e-01  6.5503329386301310e+00 0.0000000000000000e+00 2.3438633094619446e-01  6.6434067498626987e+00 0.0000000000000000e+00 2.2018895235951597e-01  6.7367102333762050e+00 0.0000000000000000e+00 2.0338795239437577e-01  6.8311123022382780e+00 0.0000000000000000e+00 1.8519057576490777e-01  6.9247393707995819e+00 0.0000000000000000e+00 1.6898072081178292e-01  7.0184857048726572e+00 0.0000000000000000e+00 1.5323892196336991e-01  7.1109373385196823e+00 0.0000000000000000e+00 1.3739218751131449e-01  7.2051389509757753e+00 0.0000000000000000e+00 1.1990836573420637e-01  7.2979746472108733e+00 0.0000000000000000e+00 1.0403076515058823e-01  7.3927293247342698e+00 0.0000000000000000e+00 8.3538370720492722e-02  7.4857465904977829e+00 0.0000000000000000e+00 6.6367665793534647e-02  7.5785413946027367e+00 0.0000000000000000e+00 4.9801122691122267e-02  7.6733563487743748e+00 0.0000000000000000e+00 3.0872780467814841e-02  7.7672698083391696e+00 0.0000000000000000e+00 1.1776437634322076e-02  7.8592139540837866e+00 0.0000000000000000e+00 -3.5031361307706118e-03  7.9535377337144091e+00 0.0000000000000000e+00 -2.4064155362804211e-02  8.0460784562643557e+00 0.0000000000000000e+00 -4.0810755515338686e-02  8.1389873619249951e+00 0.0000000000000000e+00 -5.6935368748050726e-02  8.2325285711980047e+00 0.0000000000000000e+00 -7.6305382193406560e-02  8.3261808909718482e+00 0.0000000000000000e+00 -9.5962488809326202e-02  8.4185373552359053e+00 0.0000000000000000e+00 -1.1093142526755340e-01  8.5130243226585929e+00 0.0000000000000000e+00 -1.3008013922540301e-01  8.6052187087678291e+00 0.0000000000000000e+00 -1.4331070251905192e-01  8.6995868883571639e+00 0.0000000000000000e+00 -1.5864429191254001e-01  8.7938552718839649e+00 0.0000000000000000e+00 -1.6543330175677523e-01  8.8908127323311774e+00 0.0000000000000000e+00 -1.6970318426386444e-01  8.9936915480911459e+00 0.0000000000000000e+00 -1.6817620297574146e-01  9.1035861093099761e+00 0.0000000000000000e+00 -1.6380949813206830e-01  9.2218729709205078e+00 0.0000000000000000e+00 -1.6948854946213360e-01  9.3470716138118171e+00 0.0000000000000000e+00 -1.8766416038786252e-01  9.4518043798722946e+00 2.6670208073000656e-01 -2.3687582658801226e-01  9.4177163177488854e+00 5.0577617408774056e-01 -3.3148523430639110e-01  9.3690001119840005e+00 7.0820852285679603e-01 -4.6598017066433722e-01  9.3105726588213056e+00 8.6227797798189021e-01 -6.3010386327683388e-01  9.2471278942312392e+00 9.7729575140084857e-01 -8.0965780312002822e-01  9.1783351107022124e+00 1.0517484785813183e+00 -9.9554729724830437e-01  9.0244870400107509e+00 1.0785759639576435e+00 -1.1525148030750576e+00  8.9344970777201524e+00 1.0687667313905067e+00 -1.1198661652781607e+00  8.8455383694226715e+00 1.0607651389730313e+00 -1.0883469800686754e+00  8.7564462649682735e+00 1.0517030191950867e+00 -1.0558288246565279e+00  8.6688124326361500e+00 1.0443385616162568e+00 -1.0273495850226348e+00  8.5820244524981657e+00 1.0398371302561942e+00 -1.0004596113976854e+00  8.4955262560535409e+00 1.0360173639301637e+00 -9.7378440607104699e-01  8.4088116801330060e+00 1.0341730689508031e+00 -9.4803877656206992e-01  8.3213856873340255e+00 1.0322836699038913e+00 -9.2182862778618946e-01  8.2342702942474624e+00 1.0310142603705901e+00 -8.9722181409339952e-01  8.1463019155736145e+00 1.0303512440016627e+00 -8.7247177359785777e-01  8.0580114705528487e+00 1.0313205757968482e+00 -8.5005366712223174e-01  7.9691076639629292e+00 1.0308564171526300e+00 -8.2742331242144918e-01  7.8798474977546276e+00 1.0304489079720909e+00 -8.0552408635312411e-01  7.7906935622429296e+00 1.0311917029618431e+00 -7.8558089361603300e-01  7.7003314188338949e+00 1.0310920239865378e+00 -7.6469659774888310e-01  7.6106956766267677e+00 1.0318779674396683e+00 -7.4377979460093535e-01  7.5204957045011032e+00 1.0330822018497163e+00 -7.2393252994144353e-01  7.4303555900849965e+00 1.0335786941806906e+00 -7.0477955666425873e-01  7.3397983885208973e+00 1.0347270925257162e+00 -6.8563493900721306e-01  7.2491091091849684e+00 1.0354080264250691e+00 -6.6666974799058332e-01  7.1581638397721541e+00 1.0357689847904596e+00 -6.4784125837806472e-01  7.0669827860587722e+00 1.0365681060468073e+00 -6.3005770527980021e-01  6.9758525732811014e+00 1.0357209846642366e+00 -6.1256207414231667e-01  6.8846864897435296e+00 1.0363656180688112e+00 -5.9604677667208439e-01  6.7934142236449642e+00 1.0367466833155967e+00 -5.7953382686060839e-01  6.7018918256954825e+00 1.0370319173201632e+00 -5.6333247534915076e-01  6.6103536419335827e+00 1.0369159509391752e+00 -5.4734410545604206e-01  6.5187838998813712e+00 1.0375742482863703e+00 -5.3195553542981766e-01  6.4271714012203933e+00 1.0371993590594211e+00 -5.1616575549327381e-01  6.3354721480937686e+00 1.0374305552013265e+00 -5.0098619897071162e-01  6.2438049825492801e+00 1.0379788171668625e+00 -4.8627383727958606e-01  6.1521270815363946e+00 1.0373135281254855e+00 -4.7154057405090444e-01  6.0603324290629939e+00 1.0368918074412898e+00 -4.5716238484190741e-01  5.9686840351059782e+00 1.0367358529695765e+00 -4.4312359989756045e-01  5.8769988309956567e+00 1.0364086452346131e+00 -4.2909499049951833e-01  5.7854169015617600e+00 1.0361303994382280e+00 -4.1518729453296638e-01  5.6936983192227828e+00 1.0368907038165336e+00 -4.0159111413313414e-01  5.6019565829868041e+00 1.0375196923003738e+00 -3.8848095196156068e-01  5.5102936190580314e+00 1.0366094225436580e+00 -3.7525685951956966e-01  5.4185392029000683e+00 1.0363915398891366e+00 -3.6240186690290355e-01  5.3268188664577307e+00 1.0368434139235034e+00 -3.4998987297220113e-01  5.2352621572972140e+00 1.0360214458532540e+00 -3.3717384679395274e-01  5.1435323784022797e+00 1.0363703504259896e+00 -3.2490365913249009e-01  5.0518105622112772e+00 1.0367503259062161e+00 -3.1302306927416024e-01  4.9601285300508797e+00 1.0365375411566178e+00 -3.0094189735966903e-01  4.8686637456277424e+00 1.0365734517152305e+00 -2.8933300816321522e-01  4.7769720395723860e+00 1.0370088205909767e+00 -2.7808142388215995e-01  4.6852545513908899e+00 1.0365111570811243e+00 -2.6635120363869241e-01  4.5933249039353861e+00 1.0368071621696502e+00 -2.5481365296641406e-01  4.5015768324830185e+00 1.0371072804406776e+00 -2.4445862900472093e-01  4.4095937395725073e+00 1.0374832007823340e+00 -2.3468114734994669e-01  4.3175761242872763e+00 1.0365219184305137e+00 -2.2465027229397194e-01  4.2262064730169513e+00 1.0370680134281567e+00 -2.1443779853113926e-01  4.1345552272776489e+00 1.0370702169012855e+00 -2.0526949105771292e-01  4.0426752085281432e+00 1.0371117580268547e+00 -1.9568777566500947e-01  3.9508407550554470e+00 1.0366525719582524e+00 -1.8600464119137813e-01  3.8590169111614676e+00 1.0372035751861841e+00 -1.7713585040733643e-01  3.7673812690460688e+00 1.0370407927731060e+00 -1.6868971786703524e-01  3.6758463725079000e+00 1.0370672959592357e+00 -1.6053036658846934e-01  3.5839534863902380e+00 1.0377539872553021e+00 -1.5272127313547798e-01  3.4921641787908340e+00 1.0370388902544416e+00 -1.4477628179361210e-01  3.4001412424169941e+00 1.0367792379636382e+00 -1.3703519230676825e-01  3.3082782041934382e+00 1.0370720007877183e+00 -1.2994328000673416e-01  3.2163885448321206e+00 1.0366827898621311e+00 -1.2256699229743834e-01  3.1244734588555625e+00 1.0354365461257287e+00 -1.1502558923842449e-01  3.0327120578817741e+00 1.0356746426468975e+00 -1.0905206962056985e-01  2.9408741900403417e+00 1.0352141619550403e+00 -1.0257466727305899e-01  2.8491232699236604e+00 1.0355612023216061e+00 -9.6165309957706932e-02  2.7574113154521793e+00 1.0356171681171926e+00 -8.9670417933660596e-02  2.6654931812582849e+00 1.0356641927311734e+00 -8.3203524736699216e-02  2.5734889443540299e+00 1.0356744466487211e+00 -7.7131212315306563e-02  2.4815956717289986e+00 1.0360299039724410e+00 -7.1708892733661253e-02  2.3897557233998286e+00 1.0360774380110012e+00 -6.6177653784281976e-02  2.2978620532022660e+00 1.0361698010986320e+00 -6.0725680795300441e-02  2.2060942834666113e+00 1.0357412557639714e+00 -5.5391612223890024e-02  2.1143708459965578e+00 1.0357057736520670e+00 -5.0767688053673488e-02  2.0226505234023682e+00 1.0362025445549516e+00 -4.6324705591241182e-02  1.9306511850529284e+00 1.0362016703162062e+00 -4.1932191930993845e-02  1.8386155214295452e+00 1.0358060739651900e+00 -3.7123075988368413e-02  1.7467185955216016e+00 1.0364339355464700e+00 -3.3229757504224612e-02  1.6546495620423143e+00 1.0367901902795638e+00 -2.9282382837431467e-02  1.5626912672527791e+00 1.0358142393804177e+00 -2.5075183314163092e-02  1.4707437532901357e+00 1.0359542080028497e+00 -2.2022007355562284e-02  1.3789837146766966e+00 1.0357800714537819e+00 -1.9216469292567311e-02  1.2871669605215859e+00 1.0359273163288198e+00 -1.6286898850969008e-02  1.1953278733516610e+00 1.0356543096303710e+00 -1.2971527917476021e-02  1.1034801575410682e+00 1.0363615069041920e+00 -1.0869862971919317e-02  1.0115915153508706e+00 1.0365256363665001e+00 -8.6791037730106543e-03  9.1964112942148113e-01 1.0364693127159406e+00 -6.5776328833165362e-03  8.2755863626700765e-01 1.0361796614199945e+00 -4.8562074635442893e-03  7.3560363764350323e-01 1.0359675246639868e+00 -3.5940710441025900e-03  6.4353162133433062e-01 1.0359061763555280e+00 -2.4814754015471388e-03  5.5136304452598806e-01 1.0354478000660206e+00 -1.1110053453099672e-03  4.5945042022868826e-01 1.0350001741480277e+00 -3.7232008941426092e-04  3.6748119319043804e-01 1.0352066096632846e+00 -4.2884524030972250e-04  2.7554333055684005e-01 1.0341205494408152e+00 -9.6583225492623604e-05  1.8363538733734594e-01 1.0338446899808416e+00 0.0000000000000000e+00  9.1771697783416067e-02 1.0329609402554647e+00 0.0000000000000000e+00  9.1333117639922641e+00 9.2019097423618379e-01 -1.1542529920097337e+00  9.1500301253411482e+00 7.4248134084166151e-01 -1.1345718375271234e+00  9.1692313715405671e+00 5.6706189738954405e-01 -1.1189923682749556e+00  9.1777549482034058e+00 3.7547377354829470e-01 -1.1120992911169525e+00  9.1900495683546044e+00 1.8583289362530209e-01 -1.1024906951409932e+00  9.1087491969420107e+00 0.0000000000000000e+00 -1.0651448432761383e+00  9.0181161431983909e+00 0.0000000000000000e+00 -1.0392936002572259e+00  8.9257455910788774e+00 0.0000000000000000e+00 -1.0095632885519625e+00  8.8322648228370841e+00 0.0000000000000000e+00 -9.8523086597864962e-01  8.7400219162330508e+00 0.0000000000000000e+00 -9.6547151807910270e-01  8.6463801400905158e+00 0.0000000000000000e+00 -9.4297925903488933e-01  8.5543003285524151e+00 0.0000000000000000e+00 -9.2449955874846701e-01  8.4605823982104837e+00 0.0000000000000000e+00 -9.0659184999949549e-01  8.3663684707086272e+00 0.0000000000000000e+00 -8.8458201031060679e-01  8.2733035695978856e+00 0.0000000000000000e+00 -8.6987628529679828e-01  8.1800222264529747e+00 0.0000000000000000e+00 -8.5298857942688888e-01  8.0874241616203832e+00 0.0000000000000000e+00 -8.3375381332838538e-01  7.9946627025125849e+00 0.0000000000000000e+00 -8.1392665762740535e-01  7.9010787677489960e+00 0.0000000000000000e+00 -7.9425924899087952e-01  7.8087898883245117e+00 0.0000000000000000e+00 -7.7956745558283669e-01  7.7169321499955954e+00 0.0000000000000000e+00 -7.6264594578090483e-01  7.6251172972693926e+00 0.0000000000000000e+00 -7.4389019678802315e-01  7.5318277208334949e+00 0.0000000000000000e+00 -7.2426178301314281e-01  7.4389221143750186e+00 0.0000000000000000e+00 -7.1083685680970043e-01  7.3470825099518589e+00 0.0000000000000000e+00 -6.9226687978964507e-01  7.2546262943720459e+00 0.0000000000000000e+00 -6.7352628508834245e-01  7.1634823081630543e+00 0.0000000000000000e+00 -6.5845610125010035e-01  7.0712223165175168e+00 0.0000000000000000e+00 -6.3923460361415785e-01  6.9787610094514445e+00 0.0000000000000000e+00 -6.2447322775398817e-01  6.8876309646007572e+00 0.0000000000000000e+00 -6.0795674460783988e-01  6.7959413266224242e+00 0.0000000000000000e+00 -5.9023989572674440e-01  6.7034930596388316e+00 0.0000000000000000e+00 -5.7309381018196814e-01  6.6113336936093363e+00 0.0000000000000000e+00 -5.5981315102550555e-01  6.5193388381245212e+00 0.0000000000000000e+00 -5.4327083795185460e-01  6.4273603915027291e+00 0.0000000000000000e+00 -5.2957164652347199e-01  6.3366531725158781e+00 0.0000000000000000e+00 -5.1562447565894487e-01  6.2452469382827704e+00 0.0000000000000000e+00 -4.9981079352428742e-01  6.1531815280895019e+00 0.0000000000000000e+00 -4.8157207162115701e-01  6.0609391706516842e+00 0.0000000000000000e+00 -4.6898018625977056e-01  5.9686112865520986e+00 0.0000000000000000e+00 -4.5185029135401056e-01  5.8775613952199839e+00 0.0000000000000000e+00 -4.4113982009720515e-01  5.7856022758757222e+00 0.0000000000000000e+00 -4.2566200118191394e-01  5.6927299209322380e+00 0.0000000000000000e+00 -4.1067938773522467e-01  5.6007919601877827e+00 0.0000000000000000e+00 -3.9898865457365723e-01  5.5094690517839986e+00 0.0000000000000000e+00 -3.8379924693864942e-01  5.4185826106079125e+00 0.0000000000000000e+00 -3.7358762269939738e-01  5.3277094003831964e+00 0.0000000000000000e+00 -3.5926717309407014e-01  5.2354077655802911e+00 0.0000000000000000e+00 -3.4503791623956520e-01  5.1447432173551793e+00 0.0000000000000000e+00 -3.3625242751793127e-01  5.0535437453078691e+00 0.0000000000000000e+00 -3.2405275068910311e-01  4.9613707573041301e+00 0.0000000000000000e+00 -3.0922879080117432e-01  4.8697499203377852e+00 0.0000000000000000e+00 -3.0008446065917915e-01  4.7775462704441054e+00 0.0000000000000000e+00 -2.8785623376901431e-01  4.6851110318842499e+00 0.0000000000000000e+00 -2.7883229376064739e-01  4.5937768117299429e+00 0.0000000000000000e+00 -2.6786679808026703e-01  4.5021082506770629e+00 0.0000000000000000e+00 -2.5818425916718152e-01  4.4099392650547458e+00 0.0000000000000000e+00 -2.4554723195574826e-01  4.3187752637121610e+00 0.000000