<?xml version="1.0"?>
<VTKFile type="UnstructuredGrid"  version="0.1"  >
<UnstructuredGrid>
<Piece  NumberOfPoints="3069" NumberOfCells="12882">
<Points>
<DataArray  type="Float64"  NumberOfComponents="3"  format="ascii">0 0 0  0 0 4  0 5.65685415 0  50 0 4  50 5.65685415 0  50 0 0  0 0 1  0 0 2  0 0 3  0 1.04967844 3.90746784  0 2.0669806 3.632725  0 3.02052855 3.18424606  0 3.88091111 2.5758636  0 4.62159061 1.82634306  0 5.21972132 0.958802283  0 4.71404505 0  0 3.77123618 0  0 2.82842708 0  0 1.88561809 0  0 0.942809045 0  0.5 0 4  1 0 4  1.5 0 4  2 0 4  2.5 0 4  3 0 4  3.5 0 4  4 0 4  4.5 0 4  5 0 4  5.5 0 4  6 0 4  6.5 0 4  7 0 4  7.5 0 4  8 0 4  8.5 0 4  9 0 4  9.5 0 4  10 0 4  10.5 0 4  11 0 4  11.5 0 4  12 0 4  12.5 0 4  13 0 4  13.5 0 4  14 0 4  14.5 0 4  15 0 4  15.5 0 4  16 0 4  16.5 0 4  17 0 4  17.5 0 4  18 0 4  18.5 0 4  19 0 4  19.5 0 4  20 0 4  20.5 0 4  21 0 4  21.5 0 4  22 0 4  22.5 0 4  23 0 4  23.5 0 4  24 0 4  24.5 0 4  25 0 4  25.5 0 4  26 0 4  26.5 0 4  27 0 4  27.5 0 4  28 0 4  28.5 0 4  29 0 4  29.5 0 4  30 0 4  30.5 0 4  31 0 4  31.5 0 4  32 0 4  32.5 0 4  33 0 4  33.5 0 4  34 0 4  34.5 0 4  35 0 4  35.5 0 4  36 0 4  36.5 0 4  37 0 4  37.5 0 4  38 0 4  38.5 0 4  39 0 4  39.5 0 4  40 0 4  40.5 0 4  41 0 4  41.5 0 4  42 0 4  42.5 0 4  43 0 4  43.5 0 4  44 0 4  44.5 0 4  45 0 4  45.5 0 4  46 0 4  46.5 0 4  47 0 4  47.5 0 4  48 0 4  48.5 0 4  49 0 4  49.5 0 4  50 1.04967844 3.90746784  50 2.0669806 3.632725  50 3.02052855 3.18424606  50 3.88091111 2.5758636  50 4.62159061 1.82634306  50 5.21972132 0.958802283  49.5 5.65685415 0  49 5.65685415 0  48.5 5.65685415 0  48 5.65685415 0  47.5 5.65685415 0  47 5.65685415 0  46.5 5.65685415 0  46 5.65685415 0  45.5 5.65685415 0  45 5.65685415 0  44.5 5.65685415 0  44 5.65685415 0  43.5 5.65685415 0  43 5.65685415 0  42.5 5.65685415 0  42 5.65685415 0  41.5 5.65685415 0  41 5.65685415 0  40.5 5.65685415 0  40 5.65685415 0  39.5 5.65685415 0  39 5.65685415 0  38.5 5.65685415 0  38 5.65685415 0  37.5 5.65685415 0  37 5.65685415 0  36.5 5.65685415 0  36 5.65685415 0  35.5 5.65685415 0  35 5.65685415 0  34.5 5.65685415 0  34 5.65685415 0  33.5 5.65685415 0  33 5.65685415 0  32.5 5.65685415 0  32 5.65685415 0  31.5 5.65685415 0  31 5.65685415 0  30.5 5.65685415 0  30 5.65685415 0  29.5 5.65685415 0  29 5.65685415 0  28.5 5.65685415 0  28 5.65685415 0  27.5 5.65685415 0  27 5.65685415 0  26.5 5.65685415 0  26 5.65685415 0  25.5 5.65685415 0  25 5.65685415 0  24.5 5.65685415 0  24 5.65685415 0  23.5 5.65685415 0  23 5.65685415 0  22.5 5.65685415 0  22 5.65685415 0  21.5 5.65685415 0  21 5.65685415 0  20.5 5.65685415 0  20 5.65685415 0  19.5 5.65685415 0  19 5.65685415 0  18.5 5.65685415 0  18 5.65685415 0  17.5 5.65685415 0  17 5.65685415 0  16.5 5.65685415 0  16 5.65685415 0  15.5 5.65685415 0  15 5.65685415 0  14.5 5.65685415 0  14 5.65685415 0  13.5 5.65685415 0  13 5.65685415 0  12.5 5.65685415 0  12 5.65685415 0  11.5 5.65685415 0  11 5.65685415 0  10.5 5.65685415 0  10 5.65685415 0  9.5 5.65685415 0  9 5.65685415 0  8.5 5.65685415 0  8 5.65685415 0  7.5 5.65685415 0  7 5.65685415 0  6.5 5.65685415 0  6 5.65685415 0  5.5 5.65685415 0  5 5.65685415 0  4.5 5.65685415 0  4 5.65685415 0  3.5 5.65685415 0  3 5.65685415 0  2.5 5.65685415 0  2 5.65685415 0  1.5 5.65685415 0  1 5.65685415 0  0.5 5.65685415 0  50 4.71404505 0  50 3.77123618 0  50 2.82842708 0  50 1.88561809 0  50 0.942809045 0  49.5 0 0  49 0 0  48.5 0 0  48 0 0  47.5 0 0  47 0 0  46.5 0 0  46 0 0  45.5 0 0  45 0 0  44.5 0 0  44 0 0  43.5 0 0  43 0 0  42.5 0 0  42 0 0  41.5 0 0  41 0 0  40.5 0 0  40 0 0  39.5 0 0  39 0 0  38.5 0 0  38 0 0  37.5 0 0  37 0 0  36.5 0 0  36 0 0  35.5 0 0  35 0 0  34.5 0 0  34 0 0  33.5 0 0  33 0 0  32.5 0 0  32 0 0  31.5 0 0  31 0 0  30.5 0 0  30 0 0  29.5 0 0  29 0 0  28.5 0 0  28 0 0  27.5 0 0  27 0 0  26.5 0 0  26 0 0  25.5 0 0  25 0 0  24.5 0 0  24 0 0  23.5 0 0  23 0 0  22.5 0 0  22 0 0  21.5 0 0  21 0 0  20.5 0 0  20 0 0  19.5 0 0  19 0 0  18.5 0 0  18 0 0  17.5 0 0  17 0 0  16.5 0 0  16 0 0  15.5 0 0  15 0 0  14.5 0 0  14 0 0  13.5 0 0  13 0 0  12.5 0 0  12 0 0  11.5 0 0  11 0 0  10.5 0 0  10 0 0  9.5 0 0  9 0 0  8.5 0 0  8 0 0  7.5 0 0  7 0 0  6.5 0 0  6 0 0  5.5 0 0  5 0 0  4.5 0 0  4 0 0  3.5 0 0  3 0 0  2.5 0 0  2 0 0  1.5 0 0  1 0 0  0.5 0 0  50 0 1  50 0 2  50 0 3  0 2.33524275 0.893602192  0 2.87561393 1.93323028  0 4.2367816 0.876864135  0 2.00050235 2.65534091  0 0.981494486 2.34323239  0 3.78543234 1.61830366  0 3.30545568 0.887000024  0 0.812916458 1.58408713  0 1.71948838 1.71268857  0 1.28267908 0.8650629520000001  0 1.21973121 3.10775328  0.5 5.21972132 0.958802223  0.5 4.62159061 1.82634306  0.5 3.88091111 2.5758636  0.5 3.02052855 3.18424606  0.5 2.0669806 3.632725  0.5 1.04967844 3.90746784  1 5.21972132 0.958802223  1 4.62159061 1.82634306  1 3.88091111 2.5758636  1 3.02052855 3.18424606  1 2.0669806 3.632725  1 1.04967844 3.90746784  1.5 5.21972132 0.958802223  1.5 4.62159061 1.82634306  1.5 3.88091111 2.5758636  1.5 3.02052855 3.18424606  1.5 2.0669806 3.632725  1.5 1.04967844 3.90746784  2 5.21972132 0.958802223  2 4.62159061 1.82634306  2 3.88091111 2.5758636  2 3.02052855 3.18424606  2 2.0669806 3.632725  2 1.04967844 3.90746784  2.5 5.21972132 0.958802223  2.5 4.62159061 1.82634306  2.5 3.88091111 2.5758636  2.5 3.02052855 3.18424606  2.5 2.0669806 3.632725  2.5 1.04967844 3.90746784  3 5.21972132 0.958802223  3 4.62159061 1.82634306  3 3.88091111 2.5758636  3 3.02052855 3.18424606  3 2.0669806 3.632725  3 1.04967844 3.90746784  3.5 5.21972132 0.958802223  3.5 4.62159061 1.82634306  3.5 3.88091111 2.5758636  3.5 3.02052855 3.18424606  3.5 2.0669806 3.632725  3.5 1.04967844 3.90746784  4 5.21972132 0.958802223  4 4.62159061 1.82634306  4 3.88091111 2.5758636  4 3.02052855 3.18424606  4 2.0669806 3.632725  4 1.04967844 3.90746784  4.5 5.21972132 0.958802223  4.5 4.62159061 1.82634306  4.5 3.88091111 2.5758636  4.5 3.02052855 3.18424606  4.5 2.0669806 3.632725  4.5 1.04967844 3.90746784  5 5.21972132 0.958802223  5 4.62159061 1.82634306  5 3.88091111 2.5758636  5 3.02052855 3.18424606  5 2.0669806 3.632725  5 1.04967844 3.90746784  5.5 5.21972132 0.958802223  5.5 4.62159061 1.82634306  5.5 3.88091111 2.5758636  5.5 3.02052855 3.18424606  5.5 2.0669806 3.632725  5.5 1.04967844 3.90746784  6 5.21972132 0.958802223  6 4.62159061 1.82634306  6 3.88091111 2.5758636  6 3.02052855 3.18424606  6 2.0669806 3.632725  6 1.04967844 3.90746784  6.5 5.21972132 0.958802223  6.5 4.62159061 1.82634306  6.5 3.88091111 2.5758636  6.5 3.02052855 3.18424606  6.5 2.0669806 3.632725  6.5 1.04967844 3.90746784  7 5.21972132 0.958802223  7 4.62159061 1.82634306  7 3.88091111 2.5758636  7 3.02052855 3.18424606  7 2.0669806 3.632725  7 1.04967844 3.90746784  7.5 5.21972132 0.958802223  7.5 4.62159061 1.82634306  7.5 3.88091111 2.5758636  7.5 3.02052855 3.18424606  7.5 2.0669806 3.632725  7.5 1.04967844 3.90746784  8 5.21972132 0.958802223  8 4.62159061 1.82634306  8 3.88091111 2.5758636  8 3.02052855 3.18424606  8 2.0669806 3.632725  8 1.04967844 3.90746784  8.5 5.21972132 0.958802223  8.5 4.62159061 1.82634306  8.5 3.88091111 2.5758636  8.5 3.02052855 3.18424606  8.5 2.0669806 3.632725  8.5 1.04967844 3.90746784  9 5.21972132 0.958802223  9 4.62159061 1.82634306  9 3.88091111 2.5758636  9 3.02052855 3.18424606  9 2.0669806 3.632725  9 1.04967844 3.90746784  9.5 5.21972132 0.958802223  9.5 4.62159061 1.82634306  9.5 3.88091111 2.5758636  9.5 3.02052855 3.18424606  9.5 2.0669806 3.632725  9.5 1.04967844 3.90746784  10 5.21972132 0.958802223  10 4.62159061 1.82634306  10 3.88091111 2.5758636  10 3.02052855 3.18424606  10 2.0669806 3.632725  10 1.04967844 3.90746784  10.5 5.21972132 0.958802223  10.5 4.62159061 1.82634306  10.5 3.88091111 2.5758636  10.5 3.02052855 3.18424606  10.5 2.0669806 3.632725  10.5 1.04967844 3.90746784  11 5.21972132 0.958802223  11 4.62159061 1.82634306  11 3.88091111 2.5758636  11 3.02052855 3.18424606  11 2.0669806 3.632725  11 1.04967844 3.90746784  11.5 5.21972132 0.958802223  11.5 4.62159061 1.82634306  11.5 3.88091111 2.5758636  11.5 3.02052855 3.18424606  11.5 2.0669806 3.632725  11.5 1.04967844 3.90746784  12 5.21972132 0.958802223  12 4.62159061 1.82634306  12 3.88091111 2.5758636  12 3.02052855 3.18424606  12 2.0669806 3.632725  12 1.04967844 3.90746784  12.5 5.21972132 0.958802223  12.5 4.62159061 1.82634306  12.5 3.88091111 2.5758636  12.5 3.02052855 3.18424606  12.5 2.0669806 3.632725  12.5 1.04967844 3.90746784  13 5.21972132 0.958802223  13 4.62159061 1.82634306  13 3.88091111 2.5758636  13 3.02052855 3.18424606  13 2.0669806 3.632725  13 1.04967844 3.90746784  13.5 5.21972132 0.958802223  13.5 4.62159061 1.82634306  13.5 3.88091111 2.5758636  13.5 3.02052855 3.18424606  13.5 2.0669806 3.632725  13.5 1.04967844 3.90746784  14 5.21972132 0.958802223  14 4.62159061 1.82634306  14 3.88091111 2.5758636  14 3.02052855 3.18424606  14 2.0669806 3.632725  14 1.04967844 3.90746784  14.5 5.21972132 0.958802223  14.5 4.62159061 1.82634306  14.5 3.88091111 2.5758636  14.5 3.02052855 3.18424606  14.5 2.0669806 3.632725  14.5 1.04967844 3.90746784  15 5.21972132 0.958802223  15 4.62159061 1.82634306  15 3.88091111 2.5758636  15 3.02052855 3.18424606  15 2.0669806 3.632725  15 1.04967844 3.90746784  15.5 5.21972132 0.958802223  15.5 4.62159061 1.82634306  15.5 3.88091111 2.5758636  15.5 3.02052855 3.18424606  15.5 2.0669806 3.632725  15.5 1.04967844 3.90746784  16 5.21972132 0.958802223  16 4.62159061 1.82634306  16 3.88091111 2.5758636  16 3.02052855 3.18424606  16 2.0669806 3.632725  16 1.04967844 3.90746784  16.5 5.21972132 0.958802223  16.5 4.62159061 1.82634306  16.5 3.88091111 2.5758636  16.5 3.02052855 3.18424606  16.5 2.0669806 3.632725  16.5 1.04967844 3.90746784  17 5.21972132 0.958802223  17 4.62159061 1.82634306  17 3.88091111 2.5758636  17 3.02052855 3.18424606  17 2.0669806 3.632725  17 1.04967844 3.90746784  17.5 5.21972132 0.958802223  17.5 4.62159061 1.82634306  17.5 3.88091111 2.5758636  17.5 3.02052855 3.18424606  17.
[...]
<PointData  Vectors="f_261141-0"> 
<DataArray  type="Float64"  Name="f_261141-0"  NumberOfComponents="3" format="ascii">0.0000000000000000e+00 0.0000000000000000e+00 0.0000000000000000e+00  0.0000000000000000e+00 0.0000000000000000e+00 2.6780287802737518e-01  0.0000000000000000e+00 4.9375315800354624e-01 0.0000000000000000e+00  3.4128516143011303e+00 0.0000000000000000e+00 3.7475845089427051e+00  4.1561779356660820e+00 4.1035461035200227e-01 3.7285645766324143e+00  4.0545241796240994e+00 0.0000000000000000e+00 3.6135627824606669e+00  0.0000000000000000e+00 0.0000000000000000e+00 9.4854690896738786e-02  0.0000000000000000e+00 0.0000000000000000e+00 1.4593724491939652e-01  0.0000000000000000e+00 0.0000000000000000e+00 1.8077433900297157e-01  0.0000000000000000e+00 4.6194546136426193e-02 2.7201917592436897e-01  0.0000000000000000e+00 1.2824878099663881e-01 2.9117388749540657e-01  0.0000000000000000e+00 2.1074513976161174e-01 2.6713539250391038e-01  0.0000000000000000e+00 2.9059937708711364e-01 2.2711365993365704e-01  0.0000000000000000e+00 3.7293252343334649e-01 1.7604872254057499e-01  0.0000000000000000e+00 4.4567437592877052e-01 9.4330149544046921e-02  0.0000000000000000e+00 3.9975631039903087e-01 0.0000000000000000e+00  0.0000000000000000e+00 3.0450271581075716e-01 0.0000000000000000e+00  0.0000000000000000e+00 2.1432374191626971e-01 0.0000000000000000e+00  0.0000000000000000e+00 1.3462654322353543e-01 0.0000000000000000e+00  0.0000000000000000e+00 6.4664686809541877e-02 0.0000000000000000e+00  3.7843025830404622e-02 0.0000000000000000e+00 2.6854968779912097e-01  7.2452048614241066e-02 0.0000000000000000e+00 2.6699386313676243e-01  1.0847720098978249e-01 0.0000000000000000e+00 2.6731495134228406e-01  1.4484197414482808e-01 0.0000000000000000e+00 2.6906302363633761e-01  1.8391993472667312e-01 0.0000000000000000e+00 2.6904673153308439e-01  2.1853237402566777e-01 0.0000000000000000e+00 2.7529022025460453e-01  2.5707946636893514e-01 0.0000000000000000e+00 2.8033377972290602e-01  2.9199546035111412e-01 0.0000000000000000e+00 2.8810884395769676e-01  3.2852853898078538e-01 0.0000000000000000e+00 2.9868585829457706e-01  3.6512061168550519e-01 0.0000000000000000e+00 3.1049791370275942e-01  4.0324149863322922e-01 0.0000000000000000e+00 3.1975479412370206e-01  4.4112882885068344e-01 0.0000000000000000e+00 3.1953927226704093e-01  4.7739627937965590e-01 0.0000000000000000e+00 3.2873983236996185e-01  5.1155054365985964e-01 0.0000000000000000e+00 3.4177683594822827e-01  5.5241832238733235e-01 0.0000000000000000e+00 3.4939351803970559e-01  5.8574046432492510e-01 0.0000000000000000e+00 3.6138775080940050e-01  6.2186585116230997e-01 0.0000000000000000e+00 3.7358967619450395e-01  6.5787875822766761e-01 0.0000000000000000e+00 3.8918648814019263e-01  6.9604392931315295e-01 0.0000000000000000e+00 3.9961638986599135e-01  7.3372414077907200e-01 0.0000000000000000e+00 4.1026147849556233e-01  7.7058327529329140e-01 0.0000000000000000e+00 4.2104368880771659e-01  8.0958463015205395e-01 0.0000000000000000e+00 4.3912321118996417e-01  8.4611502193163868e-01 0.0000000000000000e+00 4.5214727066015276e-01  8.8239239049440310e-01 0.0000000000000000e+00 4.6849225110571519e-01  9.1992094558367943e-01 0.0000000000000000e+00 4.8455210659299258e-01  9.5454498251072462e-01 0.0000000000000000e+00 5.0406997711816193e-01  9.8933264715958780e-01 0.0000000000000000e+00 5.2679238411531248e-01  1.0275767168939676e+00 0.0000000000000000e+00 5.4117625760781796e-01  1.0619862970601786e+00 0.0000000000000000e+00 5.6185366518423652e-01  1.0969053440121241e+00 0.0000000000000000e+00 5.8711362633086617e-01  1.1392157704550927e+00 0.0000000000000000e+00 5.9689344685235657e-01  1.1779910693791147e+00 0.0000000000000000e+00 6.2263661426254568e-01  1.2123833699039475e+00 0.0000000000000000e+00 6.5075811254866212e-01  1.2492275574267180e+00 0.0000000000000000e+00 6.7363304779326461e-01  1.2843399751962217e+00 0.0000000000000000e+00 7.0078927642842537e-01  1.3209358907114126e+00 0.0000000000000000e+00 7.2322360078228032e-01  1.3545336134797485e+00 0.0000000000000000e+00 7.5128958498507714e-01  1.3911762062615884e+00 0.0000000000000000e+00 7.7258148192129183e-01  1.4264515526611330e+00 0.0000000000000000e+00 8.0316061802900474e-01  1.4625089055502296e+00 0.0000000000000000e+00 8.2803454126392551e-01  1.5010726559816181e+00 0.0000000000000000e+00 8.5431046672122735e-01  1.5344819748603986e+00 0.0000000000000000e+00 8.8105131566109229e-01  1.5713446795619050e+00 0.0000000000000000e+00 9.1057559699468049e-01  1.6043835230547956e+00 0.0000000000000000e+00 9.4747258920560451e-01  1.6430705770088121e+00 0.0000000000000000e+00 9.7528580216042571e-01  1.6798238253953863e+00 0.0000000000000000e+00 1.0078903185057286e+00  1.7157025740089606e+00 0.0000000000000000e+00 1.0367517679009277e+00  1.7495536925800188e+00 0.0000000000000000e+00 1.0706897136430322e+00  1.7861727262372609e+00 0.0000000000000000e+00 1.1050025925724396e+00  1.8200950659898458e+00 0.0000000000000000e+00 1.1420593730131343e+00  1.8562062455115678e+00 0.0000000000000000e+00 1.1807554380849903e+00  1.8925148673451431e+00 0.0000000000000000e+00 1.2142904687584199e+00  1.9259911249895583e+00 0.0000000000000000e+00 1.2554698011848693e+00  1.9623264367477775e+00 0.0000000000000000e+00 1.2928243477317229e+00  1.9976705116986722e+00 0.0000000000000000e+00 1.3298120234918003e+00  2.0294838901480361e+00 0.0000000000000000e+00 1.3674149552194419e+00  2.0673005627466634e+00 0.0000000000000000e+00 1.4086132143224124e+00  2.1029229549297384e+00 0.0000000000000000e+00 1.4515253664724825e+00  2.1381929045725045e+00 0.0000000000000000e+00 1.4923458073084159e+00  2.1700152320698933e+00 0.0000000000000000e+00 1.5380049573370194e+00  2.2057575346106062e+00 0.0000000000000000e+00 1.5833135003566601e+00  2.2420354773722559e+00 0.0000000000000000e+00 1.6249512930488370e+00  2.2764768252469776e+00 0.0000000000000000e+00 1.6683067233068336e+00  2.3130510146923480e+00 0.0000000000000000e+00 1.7151772774134264e+00  2.3482754677337696e+00 0.0000000000000000e+00 1.7585720267185201e+00  2.3808616909066260e+00 0.0000000000000000e+00 1.8049138728721357e+00  2.4166885666032689e+00 0.0000000000000000e+00 1.8505345803788189e+00  2.4529335931330389e+00 0.0000000000000000e+00 1.8994191948056085e+00  2.4850795748117878e+00 0.0000000000000000e+00 1.9484932099984862e+00  2.5198965701222793e+00 0.0000000000000000e+00 2.0013850757800746e+00  2.5548706775702743e+00 0.0000000000000000e+00 2.0493950892139963e+00  2.5892921840333063e+00 0.0000000000000000e+00 2.1014523129250291e+00  2.6200091719417977e+00 0.0000000000000000e+00 2.1588522472634759e+00  2.6544944915058233e+00 0.0000000000000000e+00 2.2118174776849360e+00  2.6896129356678831e+00 0.0000000000000000e+00 2.2628734057896316e+00  2.7250035623927946e+00 0.0000000000000000e+00 2.3182064768093076e+00  2.7571681465788380e+00 0.0000000000000000e+00 2.3736215043274385e+00  2.7919119784735389e+00 0.0000000000000000e+00 2.4276737471902075e+00  2.8229974411654175e+00 0.0000000000000000e+00 2.4879906115050532e+00  2.8570312261234765e+00 0.0000000000000000e+00 2.5460732393536691e+00  2.8919088338972618e+00 0.0000000000000000e+00 2.6038857312188006e+00  2.9226427447668906e+00 0.0000000000000000e+00 2.6619310063706143e+00  2.9559775731636777e+00 0.0000000000000000e+00 2.7241764836779816e+00  2.9915876666445742e+00 0.0000000000000000e+00 2.7816412773431378e+00  3.0235001421255920e+00 0.0000000000000000e+00 2.8395765996896163e+00  3.0566584837187385e+00 0.0000000000000000e+00 2.9014586071183146e+00  3.0906715870468457e+00 0.0000000000000000e+00 2.9589456510799987e+00  3.1221948248910198e+00 0.0000000000000000e+00 3.0221559256148720e+00  3.1561505311767575e+00 0.0000000000000000e+00 3.0854312043990957e+00  3.1888359621084503e+00 0.0000000000000000e+00 3.1484602202116272e+00  3.2190201495604076e+00 0.0000000000000000e+00 3.2126578000996049e+00  3.2511246734364478e+00 0.0000000000000000e+00 3.2755481996482172e+00  3.2828702078387484e+00 0.0000000000000000e+00 3.3351993439198386e+00  3.3149756689483953e+00 0.0000000000000000e+00 3.3896736974481003e+00  3.3436959815598617e+00 0.0000000000000000e+00 3.4410786395160735e+00  3.3649755846717433e+00 0.0000000000000000e+00 3.4933952113765723e+00  3.3818812599410664e+00 0.0000000000000000e+00 3.5485193805098381e+00  3.3951302517016808e+00 0.0000000000000000e+00 3.6084874034290166e+00  3.4033631249541969e+00 0.0000000000000000e+00 3.6718405090111705e+00  3.4461082025488818e+00 1.9353860388093318e-02 3.7444382511027960e+00  3.5022949573264963e+00 5.0477180518558144e-02 3.7582980118618705e+00  3.5802413185399358e+00 9.2690074403022640e-02 3.7786286150223680e+00  3.6864461876842172e+00 1.5062555791958102e-01 3.7922159860006821e+00  3.8232522211116802e+00 2.2490364446871952e-01 3.8026944452111699e+00  3.9947536449711563e+00 3.1586491331809224e-01 3.7827531391098357e+00  4.1190048468844198e+00 4.2496201671033906e-01 3.6486177363577128e+00  4.0796435048815294e+00 4.3948801637327123e-01 3.5656551361054998e+00  4.0406925551124697e+00 4.5327798378356088e-01 3.4812324008666282e+00  4.0011240765564899e+00 4.6481201551930790e-01 3.3973693419732380e+00  3.9588806126163938e+00 4.7487947348480924e-01 3.3158564122493024e+00  3.9149332068099825e+00 4.8197883062632080e-01 3.2361563862780174e+00  3.8699868108269984e+00 4.8666766609686773e-01 3.1585041532916223e+00  3.8245349003636040e+00 4.8817503534615730e-01 3.0827883092163266e+00  3.7807790552062306e+00 4.8936448010318073e-01 3.0066372821107237e+00  3.7361698109168930e+00 4.8905264741452814e-01 2.9342952135371898e+00  3.6933130664634257e+00 4.9041073638892829e-01 2.8617011546366378e+00  3.6508268955294438e+00 4.9058641519920010e-01 2.7918920648521670e+00  3.6088015338524224e+00 4.9060743835060283e-01 2.7247494538696504e+00  3.5670528051729784e+00 4.9085723412738969e-01 2.6588186643584666e+00  3.5269168552952408e+00 4.9005578848530734e-01 2.5932112233486495e+00  3.4865596151488840e+00 4.8912925596147161e-01 2.5282578068591048e+00  3.4458904745285159e+00 4.8804574939099815e-01 2.4657313192618053e+00  3.4056022741846586e+00 4.8674494101348253e-01 2.4054930264736289e+00  3.3653237395329270e+00 4.8791517633159265e-01 2.3440288766773345e+00  3.3250493371525076e+00 4.8653966911584212e-01 2.2827898496682946e+00  3.2850025873348505e+00 4.8348821034683137e-01 2.2220156919407232e+00  3.2441691956569185e+00 4.8386355978018686e-01 2.1605812325948288e+00  3.2039831408347794e+00 4.8174000335733508e-01 2.1017319936271379e+00  3.1632933704683239e+00 4.8281566373604207e-01 2.0438491037792375e+00  3.1233963050333609e+00 4.8207622932801847e-01 1.9865855690456782e+00  3.0828551657398910e+00 4.7804991472830222e-01 1.9329249850356174e+00  3.0422681534985130e+00 4.7905604963929521e-01 1.8795889886137753e+00  3.0023257991241867e+00 4.8119028422973897e-01 1.8251529991643158e+00  2.9623728138218266e+00 4.7888665341486764e-01 1.7748287725101952e+00  2.9231352618853186e+00 4.8102120344844690e-01 1.7226206886719440e+00  2.8826645725343565e+00 4.7990684034809000e-01 1.6728992542748431e+00  2.8423491030300663e+00 4.7713325656273153e-01 1.6243279059840938e+00  2.8016345456609995e+00 4.7819751694161067e-01 1.5761851851871145e+00  2.7614500664160189e+00 4.7963036809420861e-01 1.5286709106103891e+00  2.7210058355954296e+00 4.7938597667445326e-01 1.4821758033632961e+00  2.6810388000016774e+00 4.8127485994743219e-01 1.4350897326483856e+00  2.6409750684666995e+00 4.8191738157221065e-01 1.3883579202429255e+00  2.5998839792331698e+00 4.8153556074328135e-01 1.3434168599690823e+00  2.5587969800196588e+00 4.8021555369558183e-01 1.3000430377539327e+00  2.5180779350397753e+00 4.8310479575374515e-01 1.2566277670166255e+00  2.4771458779294910e+00 4.8379062024910563e-01 1.2131171151095044e+00  2.4357534765762789e+00 4.8187094129790137e-01 1.1721123558203306e+00  2.3931198828038101e+00 4.8227624894094923e-01 1.1300405439341512e+00  2.3524089048094021e+00 4.8167327636345691e-01 1.0857074584930513e+00  2.3118271881789871e+00 4.7965594838153880e-01 1.0447599438264443e+00  2.2708515877212450e+00 4.8093661048478781e-01 1.0054652388828491e+00  2.2295126912633245e+00 4.8240519559846184e-01 9.6637896500052189e-01  2.1881063686507769e+00 4.8073344621116620e-01 9.3012892231946320e-01  2.1464784741328709e+00 4.8057947049232330e-01 8.9188584476590949e-01  2.1050705402454040e+00 4.7928586741305762e-01 8.5390378871637118e-01  2.0629630998129924e+00 4.7850664504322482e-01 8.1944869648519814e-01  2.0215544902329787e+00 4.7971815555156549e-01 7.8402259353622872e-01  1.9804788680536354e+00 4.7966268521941102e-01 7.5162576048864582e-01  1.9390456401703480e+00 4.8120570106447769e-01 7.1528527772579997e-01  1.8977149800648077e+00 4.7729256742466425e-01 6.8236588122230257e-01  1.8554207165754253e+00 4.7721886265362484e-01 6.5049971307866827e-01  1.8132931360154279e+00 4.7935341343548193e-01 6.1928876337323169e-01  1.7720708815112538e+00 4.7922489331349943e-01 5.8851363995329764e-01  1.7299441307320398e+00 4.7871644688476789e-01 5.6035094724201318e-01  1.6879252938304703e+00 4.7972729554998483e-01 5.3114348122392963e-01  1.6459559172546248e+00 4.7780530697660417e-01 5.0491697576477701e-01  1.6040411487356219e+00 4.7910676658443335e-01 4.7853073887709496e-01  1.5616627544961972e+00 4.8073992443482855e-01 4.5415705657464395e-01  1.5205604885025636e+00 4.8042413617375512e-01 4.2921686596301767e-01  1.4786529699103188e+00 4.8130638895606181e-01 4.0602830243356458e-01  1.4360745775759789e+00 4.8236354990027314e-01 3.8368110751006435e-01  1.3935571704498155e+00 4.8245457412928305e-01 3.6169804199193756e-01  1.3524365557787394e+00 4.8435942488316769e-01 3.3831695029119874e-01  1.3103180267566852e+00 4.8277872529670679e-01 3.1738595305012024e-01  1.2681072709661940e+00 4.8309719423173059e-01 2.9465542313597903e-01  1.2258514969977228e+00 4.8133354257892474e-01 2.7379822890928818e-01  1.1839408672050185e+00 4.8269767408335690e-01 2.5213762848990567e-01  1.1423910642012056e+00 4.8135341875707643e-01 2.3242090679393115e-01  1.0993313947506307e+00 4.8137715861510982e-01 2.1321502833950023e-01  1.0571250737253390e+00 4.8015526440541023e-01 1.9433767975875871e-01  1.0139069801855749e+00 4.8183570610050813e-01 1.7681561523530637e-01  9.7178225035833210e-01 4.8234006274485414e-01 1.6106798209723019e-01  9.2994418139324875e-01 4.8219530115527892e-01 1.4596523972289666e-01  8.8800203582779436e-01 4.8292615570581576e-01 1.3157658715182347e-01  8.4576236931814064e-01 4.8215934912586161e-01 1.1764394539187424e-01  8.0323227028184674e-01 4.8074491147113868e-01 1.0380074496826791e-01  7.6120006733875001e-01 4.8065610598535319e-01 9.1633396904399825e-02  7.1918587080608365e-01 4.8184392257503245e-01 7.9528597360500580e-02  6.7712139279662220e-01 4.8385288261352127e-01 6.7436196975377380e-02  6.3525565091697533e-01 4.8227174669167844e-01 5.6412475732440015e-02  5.9288723104815344e-01 4.8278140208592085e-01 4.5856129567026289e-02  5.4945690134974789e-01 4.8138719985321460e-01 3.7219113673578171e-02  5.0718241157458399e-01 4.8080960987084481e-01 2.8259928859803995e-02  4.6485458290585813e-01 4.8044059535621253e-01 2.1935457801539257e-02  4.2238814125777219e-01 4.8142541812192646e-01 1.5791898834435193e-02  3.8101918891371256e-01 4.8404080806117761e-01 9.8762205672137653e-03  3.3886968408385754e-01 4.8477102232286207e-01 6.0685914183060252e-03  2.9695223327790859e-01 4.8456771782613700e-01 2.9904982519352837e-03  2.5410106711591629e-01 4.8746011558381863e-01 1.7227901158651433e-03  2.1141506208184158e-01 4.9034282984386413e-01 -1.7042008773689198e-04  1.6932007938068272e-01 4.8957696088435648e-01 1.1792648162024988e-03  1.2646107911521159e-01 4.8960826805876900e-01 1.8216721039169374e-03  8.3227253256236020e-02 4.9041662116047496e-01 0.0000000000000000e+00  4.0232446198580178e-02 4.9154977884040613e-01 0.0000000000000000e+00  4.1340978415673968e+00 3.2148904119142402e-01 3.6919877542114019e+00  4.1133177632226596e+00 2.4909386758761004e-01 3.6616394231895883e+00  4.0888988908986539e+00 1.7538764480913066e-01 3.6372384521154864e+00  4.0832087426765442e+00 1.2062375978017729e-01 3.6359745846988796e+00  4.0646558805978836e+00 5.6059032937743412e-02 3.6209552531758189e+00  4.0142784386178674e+00 0.0000000000000000e+00 3.5270464983320564e+00  3.9782902744973483e+00 0.0000000000000000e+00 3.4520990535007550e+00  3.9415017705579141e+00 0.0000000000000000e+00 3.3740470226642487e+00  3.9057280758645061e+00 0.0000000000000000e+00 3.3025903377109409e+00  3.8666735280564453e+00 0.0000000000000000e+00 3.2370789738861316e+00  3.8315237505190538e+00 0.0000000000000000e+00 3.1692790805098419e+00  3.7936379457779421e+00 0.0000000000000000e+00 3.1069643356769467e+00  3.7587604208595669e+00 0.0000000000000000e+00 3.0430304964409749e+00  3.7256194579805464e+00 0.0000000000000000e+00 2.9742376810605573e+00  3.6866217020130416e+00 0.0000000000000000e+00 2.9191811072216409e+00  3.6503669895400241e+00 0.0000000000000000e+00 2.8583963490689683e+00  3.6139293848009384e+00 0.0000000000000000e+00 2.7920087002624787e+00  3.5777370441008323e+00 0.0000000000000000e+00 2.7265531471855500e+00  3.5418799992162473e+00 0.0000000000000000e+00 2.6632784172759538e+00  3.5026533364253867e+00 0.0000000000000000e+00 2.6101794161987089e+00  3.4624927478435108e+00 0.0000000000000000e+00 2.5520496083407425e+00  3.4236794641615740e+00 0.0000000000000000e+00 2.4908923509412126e+00  3.3884958323730956e+00 0.0000000000000000e+00 2.4263618400129383e+00  3.3502431671572666e+00 0.0000000000000000e+00 2.3768761437731452e+00  3.3120052851796276e+00 0.0000000000000000e+00 2.3161045974144066e+00  3.2752279045212807e+00 0.0000000000000000e+00 2.2550409431523120e+00  3.2326735947714491e+00 0.0000000000000000e+00 2.2053284902493151e+00  3.1952534668482353e+00 0.0000000000000000e+00 2.1430789238658150e+00  3.1567672511692426e+00 0.0000000000000000e+00 2.0924803853588450e+00  3.1156757858164021e+00 0.0000000000000000e+00 2.0354837300367072e+00  3.0756730494016358e+00 0.0000000000000000e+00 1.9789338763982320e+00  3.0382670544135442e+00 0.0000000000000000e+00 1.9197141322135927e+00  2.9973244613765115e+00 0.0000000000000000e+00 1.8745719917527994e+00  2.9574269789734857e+00 0.0000000000000000e+00 1.8206899950441784e+00  2.9178859454255859e+00 0.0000000000000000e+00 1.7732494427731611e+00  2.8747388848510571e+00 0.0000000000000000e+00 1.7259593184911906e+00  2.8341727249705637e+00 0.0000000000000000e+00 1.6744025467643879e+00  2.7976659117023801e+00 0.0000000000000000e+00 1.6175258725888042e+00  2.7576583377710073e+00 0.0000000000000000e+00 1.5735728914962581e+00  2.7186837652973992e+00 0.0000000000000000e+00 1.5202515341056202e+00  2.6763569807296861e+00 0.0000000000000000e+00 1.4811552751233370e+00  2.6352076998572951e+00 0.0000000000000000e+00 1.4314077009643702e+00  2.5977487623818014e+00 0.0000000000000000e+00 1.3836367451699347e+00  2.5565734182618818e+00 0.0000000000000000e+00 1.3436975767790349e+00  2.5159069242886796e+00 0.0000000000000000e+00 1.2925798181647501e+00  2.4728873771018378e+00 0.0000000000000000e+00 1.2558661540774338e+00  2.4312136675836280e+00 0.0000000000000000e+00 1.2076631377132050e+00  2.3915376799370849e+00 0.0000000000000000e+00 1.1619678035227279e+00  2.3479970137205179e+00 0.0000000000000000e+00 1.1296032703902847e+00  2.3050428811996388e+00 0.0000000000000000e+00 1.0910070669200564e+00  2.2655702593401283e+00 0.0000000000000000e+00 1.0457257184253070e+00  2.2225744660179143e+00 0.0000000000000000e+00 1.0136978762171318e+00  2.1842608114024715e+00 0.0000000000000000e+00 9.7093305497145022e-01  2.1428320087772916e+00 0.0000000000000000e+00 9.3955936582675892e-01  2.1006432421596823e+00 0.0000000000000000e+00 9.0141582594821534e-01  2.0581139652470024e+00 0.0000000000000000e+00 8.6738189996524229e-01  2.0184314094563258e+00 0.0000000000000000e+00 8.2810895529754713e-01  1.9758209598021292e+00 0.0000000000000000e+00 8.0138791801537879e-01  1.9373657469625318e+00 0.0000000000000000e+00 7.6000758752963904e-01  1.8961027916673960e+00 0.0000000000000000e+00 7.3148914591677505e-01 