<?xml version="1.0"?>
<VTKFile type="UnstructuredGrid"  version="0.1"  >
<UnstructuredGrid>
<Piece  NumberOfPoints="3069" NumberOfCells="12882">
<Points>
<DataArray  type="Float64"  NumberOfComponents="3"  format="ascii">0 0 0  0 0 4  0 5.65685415 0  50 0 4  50 5.65685415 0  50 0 0  0 0 1  0 0 2  0 0 3  0 1.04967844 3.90746784  0 2.0669806 3.632725  0 3.02052855 3.18424606  0 3.88091111 2.5758636  0 4.62159061 1.82634306  0 5.21972132 0.958802283  0 4.71404505 0  0 3.77123618 0  0 2.82842708 0  0 1.88561809 0  0 0.942809045 0  0.5 0 4  1 0 4  1.5 0 4  2 0 4  2.5 0 4  3 0 4  3.5 0 4  4 0 4  4.5 0 4  5 0 4  5.5 0 4  6 0 4  6.5 0 4  7 0 4  7.5 0 4  8 0 4  8.5 0 4  9 0 4  9.5 0 4  10 0 4  10.5 0 4  11 0 4  11.5 0 4  12 0 4  12.5 0 4  13 0 4  13.5 0 4  14 0 4  14.5 0 4  15 0 4  15.5 0 4  16 0 4  16.5 0 4  17 0 4  17.5 0 4  18 0 4  18.5 0 4  19 0 4  19.5 0 4  20 0 4  20.5 0 4  21 0 4  21.5 0 4  22 0 4  22.5 0 4  23 0 4  23.5 0 4  24 0 4  24.5 0 4  25 0 4  25.5 0 4  26 0 4  26.5 0 4  27 0 4  27.5 0 4  28 0 4  28.5 0 4  29 0 4  29.5 0 4  30 0 4  30.5 0 4  31 0 4  31.5 0 4  32 0 4  32.5 0 4  33 0 4  33.5 0 4  34 0 4  34.5 0 4  35 0 4  35.5 0 4  36 0 4  36.5 0 4  37 0 4  37.5 0 4  38 0 4  38.5 0 4  39 0 4  39.5 0 4  40 0 4  40.5 0 4  41 0 4  41.5 0 4  42 0 4  42.5 0 4  43 0 4  43.5 0 4  44 0 4  44.5 0 4  45 0 4  45.5 0 4  46 0 4  46.5 0 4  47 0 4  47.5 0 4  48 0 4  48.5 0 4  49 0 4  49.5 0 4  50 1.04967844 3.90746784  50 2.0669806 3.632725  50 3.02052855 3.18424606  50 3.88091111 2.5758636  50 4.62159061 1.82634306  50 5.21972132 0.958802283  49.5 5.65685415 0  49 5.65685415 0  48.5 5.65685415 0  48 5.65685415 0  47.5 5.65685415 0  47 5.65685415 0  46.5 5.65685415 0  46 5.65685415 0  45.5 5.65685415 0  45 5.65685415 0  44.5 5.65685415 0  44 5.65685415 0  43.5 5.65685415 0  43 5.65685415 0  42.5 5.65685415 0  42 5.65685415 0  41.5 5.65685415 0  41 5.65685415 0  40.5 5.65685415 0  40 5.65685415 0  39.5 5.65685415 0  39 5.65685415 0  38.5 5.65685415 0  38 5.65685415 0  37.5 5.65685415 0  37 5.65685415 0  36.5 5.65685415 0  36 5.65685415 0  35.5 5.65685415 0  35 5.65685415 0  34.5 5.65685415 0  34 5.65685415 0  33.5 5.65685415 0  33 5.65685415 0  32.5 5.65685415 0  32 5.65685415 0  31.5 5.65685415 0  31 5.65685415 0  30.5 5.65685415 0  30 5.65685415 0  29.5 5.65685415 0  29 5.65685415 0  28.5 5.65685415 0  28 5.65685415 0  27.5 5.65685415 0  27 5.65685415 0  26.5 5.65685415 0  26 5.65685415 0  25.5 5.65685415 0  25 5.65685415 0  24.5 5.65685415 0  24 5.65685415 0  23.5 5.65685415 0  23 5.65685415 0  22.5 5.65685415 0  22 5.65685415 0  21.5 5.65685415 0  21 5.65685415 0  20.5 5.65685415 0  20 5.65685415 0  19.5 5.65685415 0  19 5.65685415 0  18.5 5.65685415 0  18 5.65685415 0  17.5 5.65685415 0  17 5.65685415 0  16.5 5.65685415 0  16 5.65685415 0  15.5 5.65685415 0  15 5.65685415 0  14.5 5.65685415 0  14 5.65685415 0  13.5 5.65685415 0  13 5.65685415 0  12.5 5.65685415 0  12 5.65685415 0  11.5 5.65685415 0  11 5.65685415 0  10.5 5.65685415 0  10 5.65685415 0  9.5 5.65685415 0  9 5.65685415 0  8.5 5.65685415 0  8 5.65685415 0  7.5 5.65685415 0  7 5.65685415 0  6.5 5.65685415 0  6 5.65685415 0  5.5 5.65685415 0  5 5.65685415 0  4.5 5.65685415 0  4 5.65685415 0  3.5 5.65685415 0  3 5.65685415 0  2.5 5.65685415 0  2 5.65685415 0  1.5 5.65685415 0  1 5.65685415 0  0.5 5.65685415 0  50 4.71404505 0  50 3.77123618 0  50 2.82842708 0  50 1.88561809 0  50 0.942809045 0  49.5 0 0  49 0 0  48.5 0 0  48 0 0  47.5 0 0  47 0 0  46.5 0 0  46 0 0  45.5 0 0  45 0 0  44.5 0 0  44 0 0  43.5 0 0  43 0 0  42.5 0 0  42 0 0  41.5 0 0  41 0 0  40.5 0 0  40 0 0  39.5 0 0  39 0 0  38.5 0 0  38 0 0  37.5 0 0  37 0 0  36.5 0 0  36 0 0  35.5 0 0  35 0 0  34.5 0 0  34 0 0  33.5 0 0  33 0 0  32.5 0 0  32 0 0  31.5 0 0  31 0 0  30.5 0 0  30 0 0  29.5 0 0  29 0 0  28.5 0 0  28 0 0  27.5 0 0  27 0 0  26.5 0 0  26 0 0  25.5 0 0  25 0 0  24.5 0 0  24 0 0  23.5 0 0  23 0 0  22.5 0 0  22 0 0  21.5 0 0  21 0 0  20.5 0 0  20 0 0  19.5 0 0  19 0 0  18.5 0 0  18 0 0  17.5 0 0  17 0 0  16.5 0 0  16 0 0  15.5 0 0  15 0 0  14.5 0 0  14 0 0  13.5 0 0  13 0 0  12.5 0 0  12 0 0  11.5 0 0  11 0 0  10.5 0 0  10 0 0  9.5 0 0  9 0 0  8.5 0 0  8 0 0  7.5 0 0  7 0 0  6.5 0 0  6 0 0  5.5 0 0  5 0 0  4.5 0 0  4 0 0  3.5 0 0  3 0 0  2.5 0 0  2 0 0  1.5 0 0  1 0 0  0.5 0 0  50 0 1  50 0 2  50 0 3  0 2.33524275 0.893602192  0 2.87561393 1.93323028  0 4.2367816 0.876864135  0 2.00050235 2.65534091  0 0.981494486 2.34323239  0 3.78543234 1.61830366  0 3.30545568 0.887000024  0 0.812916458 1.58408713  0 1.71948838 1.71268857  0 1.28267908 0.8650629520000001  0 1.21973121 3.10775328  0.5 5.21972132 0.958802223  0.5 4.62159061 1.82634306  0.5 3.88091111 2.5758636  0.5 3.02052855 3.18424606  0.5 2.0669806 3.632725  0.5 1.04967844 3.90746784  1 5.21972132 0.958802223  1 4.62159061 1.82634306  1 3.88091111 2.5758636  1 3.02052855 3.18424606  1 2.0669806 3.632725  1 1.04967844 3.90746784  1.5 5.21972132 0.958802223  1.5 4.62159061 1.82634306  1.5 3.88091111 2.5758636  1.5 3.02052855 3.18424606  1.5 2.0669806 3.632725  1.5 1.04967844 3.90746784  2 5.21972132 0.958802223  2 4.62159061 1.82634306  2 3.88091111 2.5758636  2 3.02052855 3.18424606  2 2.0669806 3.632725  2 1.04967844 3.90746784  2.5 5.21972132 0.958802223  2.5 4.62159061 1.82634306  2.5 3.88091111 2.5758636  2.5 3.02052855 3.18424606  2.5 2.0669806 3.632725  2.5 1.04967844 3.90746784  3 5.21972132 0.958802223  3 4.62159061 1.82634306  3 3.88091111 2.5758636  3 3.02052855 3.18424606  3 2.0669806 3.632725  3 1.04967844 3.90746784  3.5 5.21972132 0.958802223  3.5 4.62159061 1.82634306  3.5 3.88091111 2.5758636  3.5 3.02052855 3.18424606  3.5 2.0669806 3.632725  3.5 1.04967844 3.90746784  4 5.21972132 0.958802223  4 4.62159061 1.82634306  4 3.88091111 2.5758636  4 3.02052855 3.18424606  4 2.0669806 3.632725  4 1.04967844 3.90746784  4.5 5.21972132 0.958802223  4.5 4.62159061 1.82634306  4.5 3.88091111 2.5758636  4.5 3.02052855 3.18424606  4.5 2.0669806 3.632725  4.5 1.04967844 3.90746784  5 5.21972132 0.958802223  5 4.62159061 1.82634306  5 3.88091111 2.5758636  5 3.02052855 3.18424606  5 2.0669806 3.632725  5 1.04967844 3.90746784  5.5 5.21972132 0.958802223  5.5 4.62159061 1.82634306  5.5 3.88091111 2.5758636  5.5 3.02052855 3.18424606  5.5 2.0669806 3.632725  5.5 1.04967844 3.90746784  6 5.21972132 0.958802223  6 4.62159061 1.82634306  6 3.88091111 2.5758636  6 3.02052855 3.18424606  6 2.0669806 3.632725  6 1.04967844 3.90746784  6.5 5.21972132 0.958802223  6.5 4.62159061 1.82634306  6.5 3.88091111 2.5758636  6.5 3.02052855 3.18424606  6.5 2.0669806 3.632725  6.5 1.04967844 3.90746784  7 5.21972132 0.958802223  7 4.62159061 1.82634306  7 3.88091111 2.5758636  7 3.02052855 3.18424606  7 2.0669806 3.632725  7 1.04967844 3.90746784  7.5 5.21972132 0.958802223  7.5 4.62159061 1.82634306  7.5 3.88091111 2.5758636  7.5 3.02052855 3.18424606  7.5 2.0669806 3.632725  7.5 1.04967844 3.90746784  8 5.21972132 0.958802223  8 4.62159061 1.82634306  8 3.88091111 2.5758636  8 3.02052855 3.18424606  8 2.0669806 3.632725  8 1.04967844 3.90746784  8.5 5.21972132 0.958802223  8.5 4.62159061 1.82634306  8.5 3.88091111 2.5758636  8.5 3.02052855 3.18424606  8.5 2.0669806 3.632725  8.5 1.04967844 3.90746784  9 5.21972132 0.958802223  9 4.62159061 1.82634306  9 3.88091111 2.5758636  9 3.02052855 3.18424606  9 2.0669806 3.632725  9 1.04967844 3.90746784  9.5 5.21972132 0.958802223  9.5 4.62159061 1.82634306  9.5 3.88091111 2.5758636  9.5 3.02052855 3.18424606  9.5 2.0669806 3.632725  9.5 1.04967844 3.90746784  10 5.21972132 0.958802223  10 4.62159061 1.82634306  10 3.88091111 2.5758636  10 3.02052855 3.18424606  10 2.0669806 3.632725  10 1.04967844 3.90746784  10.5 5.21972132 0.958802223  10.5 4.62159061 1.82634306  10.5 3.88091111 2.5758636  10.5 3.02052855 3.18424606  10.5 2.0669806 3.632725  10.5 1.04967844 3.90746784  11 5.21972132 0.958802223  11 4.62159061 1.82634306  11 3.88091111 2.5758636  11 3.02052855 3.18424606  11 2.0669806 3.632725  11 1.04967844 3.90746784  11.5 5.21972132 0.958802223  11.5 4.62159061 1.82634306  11.5 3.88091111 2.5758636  11.5 3.02052855 3.18424606  11.5 2.0669806 3.632725  11.5 1.04967844 3.90746784  12 5.21972132 0.958802223  12 4.62159061 1.82634306  12 3.88091111 2.5758636  12 3.02052855 3.18424606  12 2.0669806 3.632725  12 1.04967844 3.90746784  12.5 5.21972132 0.958802223  12.5 4.62159061 1.82634306  12.5 3.88091111 2.5758636  12.5 3.02052855 3.18424606  12.5 2.0669806 3.632725  12.5 1.04967844 3.90746784  13 5.21972132 0.958802223  13 4.62159061 1.82634306  13 3.88091111 2.5758636  13 3.02052855 3.18424606  13 2.0669806 3.632725  13 1.04967844 3.90746784  13.5 5.21972132 0.958802223  13.5 4.62159061 1.82634306  13.5 3.88091111 2.5758636  13.5 3.02052855 3.18424606  13.5 2.0669806 3.632725  13.5 1.04967844 3.90746784  14 5.21972132 0.958802223  14 4.62159061 1.82634306  14 3.88091111 2.5758636  14 3.02052855 3.18424606  14 2.0669806 3.632725  14 1.04967844 3.90746784  14.5 5.21972132 0.958802223  14.5 4.62159061 1.82634306  14.5 3.88091111 2.5758636  14.5 3.02052855 3.18424606  14.5 2.0669806 3.632725  14.5 1.04967844 3.90746784  15 5.21972132 0.958802223  15 4.62159061 1.82634306  15 3.88091111 2.5758636  15 3.02052855 3.18424606  15 2.0669806 3.632725  15 1.04967844 3.90746784  15.5 5.21972132 0.958802223  15.5 4.62159061 1.82634306  15.5 3.88091111 2.5758636  15.5 3.02052855 3.18424606  15.5 2.0669806 3.632725  15.5 1.04967844 3.90746784  16 5.21972132 0.958802223  16 4.62159061 1.82634306  16 3.88091111 2.5758636  16 3.02052855 3.18424606  16 2.0669806 3.632725  16 1.04967844 3.90746784  16.5 5.21972132 0.958802223  16.5 4.62159061 1.82634306  16.5 3.88091111 2.5758636  16.5 3.02052855 3.18424606  16.5 2.0669806 3.632725  16.5 1.04967844 3.90746784  17 5.21972132 0.958802223  17 4.62159061 1.82634306  17 3.88091111 2.5758636  17 3.02052855 3.18424606  17 2.0669806 3.632725  17 1.04967844 3.90746784  17.5 5.21972132 0.958802223  17.5 4.62159061 1.82634306  17.5 3.88091111 2.5758636  17.5 3.02052855 3.18424606  17.
[...]
<PointData  Vectors="f_261141-0"> 
<DataArray  type="Float64"  Name="f_261141-0"  NumberOfComponents="3" format="ascii">0.0000000000000000e+00 0.0000000000000000e+00 0.0000000000000000e+00  0.0000000000000000e+00 0.0000000000000000e+00 8.0619261300241807e-01  0.0000000000000000e+00 1.0497854751389404e+00 0.0000000000000000e+00  9.9168251697352439e+00 0.0000000000000000e+00 -1.6856073195045991e+00  9.2543354337243819e+00 1.1208444675316269e+00 -2.7151180215266191e+00  9.3682559208726897e+00 0.0000000000000000e+00 -2.5969793824741232e+00  0.0000000000000000e+00 0.0000000000000000e+00 1.7297458731620816e-01  0.0000000000000000e+00 0.0000000000000000e+00 3.9162948818550541e-01  0.0000000000000000e+00 0.0000000000000000e+00 6.2579592062678513e-01  0.0000000000000000e+00 2.3571803755271323e-01 7.7412611449069058e-01  0.0000000000000000e+00 4.2377482559457597e-01 6.9049809109607230e-01  0.0000000000000000e+00 6.0177789045153895e-01 5.9673379591336118e-01  0.0000000000000000e+00 7.5582802655712000e-01 4.7606546202412825e-01  0.0000000000000000e+00 8.8359786217562220e-01 3.2611950042431204e-01  0.0000000000000000e+00 9.8308913846405821e-01 1.6957435617199734e-01  0.0000000000000000e+00 8.8622856165445052e-01 0.0000000000000000e+00  0.0000000000000000e+00 7.1831197442450900e-01 0.0000000000000000e+00  0.0000000000000000e+00 5.4956932250719082e-01 0.0000000000000000e+00  0.0000000000000000e+00 3.7642307725019347e-01 0.0000000000000000e+00  0.0000000000000000e+00 1.9273084088436315e-01 0.0000000000000000e+00  9.7029877151328464e-02 0.0000000000000000e+00 8.0787222451474272e-01  1.9588609350603844e-01 0.0000000000000000e+00 8.0799885282811879e-01  2.9467879166764788e-01 0.0000000000000000e+00 8.0843447852219041e-01  3.9508415453874490e-01 0.0000000000000000e+00 8.0526091783554787e-01  4.8969358862939039e-01 0.0000000000000000e+00 8.1140697318509791e-01  5.9142005983087376e-01 0.0000000000000000e+00 8.0357059810026155e-01  6.8719630853248159e-01 0.0000000000000000e+00 8.0166940287140442e-01  7.8878095519090741e-01 0.0000000000000000e+00 7.9223599093315655e-01  8.8729560742017466e-01 0.0000000000000000e+00 7.8461253897443928e-01  9.8513868224944634e-01 0.0000000000000000e+00 7.7548737034476878e-01  1.0819596942898497e+00 0.0000000000000000e+00 7.7135263342288674e-01  1.1801771824302802e+00 0.0000000000000000e+00 7.7096181336706326e-01  1.2786810936134576e+00 0.0000000000000000e+00 7.6660163951179994e-01  1.3812941151617368e+00 0.0000000000000000e+00 7.5219147987709833e-01  1.4767068565514725e+00 0.0000000000000000e+00 7.4832969783040915e-01  1.5786384850621167e+00 0.0000000000000000e+00 7.3875424457183347e-01  1.6770452959281459e+00 0.0000000000000000e+00 7.3027834023847371e-01  1.7758174117844925e+00 0.0000000000000000e+00 7.1927290063428295e-01  1.8725427879906105e+00 0.0000000000000000e+00 7.1339231633006528e-01  1.9697075275891824e+00 0.0000000000000000e+00 7.0547981325153197e-01  2.0673262240920498e+00 0.0000000000000000e+00 7.0168053621692261e-01  2.1645458968437858e+00 0.0000000000000000e+00 6.8621550473829307e-01  2.2637522931909153e+00 0.0000000000000000e+00 6.7813570433250547e-01  2.3627903236310646e+00 0.0000000000000000e+00 6.6469290242983436e-01  2.4591535364588535e+00 0.0000000000000000e+00 6.5790208237906800e-01  2.5599864974378024e+00 0.0000000000000000e+00 6.3973092969446632e-01  2.6592583144856858e+00 0.0000000000000000e+00 6.2371923548809605e-01  2.7555024907627428e+00 0.0000000000000000e+00 6.1388344340132417e-01  2.8547895608554485e+00 0.0000000000000000e+00 5.9858903501274596e-01  2.9550297972855888e+00 0.0000000000000000e+00 5.7624569170286810e-01  3.0463426192297702e+00 0.0000000000000000e+00 5.7665833531909849e-01  3.1425599900536128e+00 0.0000000000000000e+00 5.5590994804859917e-01  3.2415644141000337e+00 0.0000000000000000e+00 5.3601768737953404e-01  3.3411809588562771e+00 0.0000000000000000e+00 5.1583503194051716e-01  3.4423493434946835e+00 0.0000000000000000e+00 4.9601581229336578e-01  3.5418717167593994e+00 0.0000000000000000e+00 4.7937880001732408e-01  3.6421703353617301e+00 0.0000000000000000e+00 4.6131694636468501e-01  3.7393393223418707e+00 0.0000000000000000e+00 4.4728757902297406e-01  3.8397843638442439e+00 0.0000000000000000e+00 4.2206290116340311e-01  3.9371578156204303e+00 0.0000000000000000e+00 4.0543051145787279e-01  4.0314814842034448e+00 0.0000000000000000e+00 3.9004991391627875e-01  4.1320591435120733e+00 0.0000000000000000e+00 3.6932841665303257e-01  4.2279526230676296e+00 0.0000000000000000e+00 3.4903999180552264e-01  4.3302022277366792e+00 0.0000000000000000e+00 3.1611977859002988e-01  4.4248004671726138e+00 0.0000000000000000e+00 2.9697854886258007e-01  4.5216937493581915e+00 0.0000000000000000e+00 2.7261453480588455e-01  4.6192936571884760e+00 0.0000000000000000e+00 2.5385897681436237e-01  4.7187642070142211e+00 0.0000000000000000e+00 2.2833437616462240e-01  4.8166932056284812e+00 0.0000000000000000e+00 2.0531432360212776e-01  4.9158662719158093e+00 0.0000000000000000e+00 1.7941669623190679e-01  5.0151377390918457e+00 0.0000000000000000e+00 1.4986553849412571e-01  5.1113364605936447e+00 0.0000000000000000e+00 1.2911884020267869e-01  5.2113154368848909e+00 0.0000000000000000e+00 9.6136847841570866e-02  5.3070481579447035e+00 0.0000000000000000e+00 7.3948587041612418e-02  5.4055106412183473e+00 0.0000000000000000e+00 4.3542581351425504e-02  5.5068889196768858e+00 0.0000000000000000e+00 1.4932174791868692e-02  5.6042624712019418e+00 0.0000000000000000e+00 -1.6308628567814953e-02  5.7001593246269824e+00 0.0000000000000000e+00 -4.3560422390137167e-02  5.7980864867177191e+00 0.0000000000000000e+00 -6.9549952233143489e-02  5.8982537875742178e+00 0.0000000000000000e+00 -1.0612142832525917e-01  5.9957733016092307e+00 0.0000000000000000e+00 -1.4326112343595890e-01  6.0916103204425029e+00 0.0000000000000000e+00 -1.6895795498821095e-01  6.1900836178809131e+00 0.0000000000000000e+00 -2.0420631539194509e-01  6.2884917363513670e+00 0.0000000000000000e+00 -2.3876555376640821e-01  6.3839418474533156e+00 0.0000000000000000e+00 -2.6332794895775541e-01  6.4843740502282641e+00 0.0000000000000000e+00 -2.9936955646244934e-01  6.5836306830075113e+00 0.0000000000000000e+00 -3.3382572153358625e-01  6.6792249859495243e+00 0.0000000000000000e+00 -3.6770536142025861e-01  6.7780045274074610e+00 0.0000000000000000e+00 -4.0704607982851843e-01  6.8738293213213826e+00 0.0000000000000000e+00 -4.4390587524642028e-01  6.9704471831544552e+00 0.0000000000000000e+00 -4.7813847384118080e-01  7.0673073716509176e+00 0.0000000000000000e+00 -5.1819284703039725e-01  7.1669271254725722e+00 0.0000000000000000e+00 -5.6248112685057605e-01  7.2647458506594251e+00 0.0000000000000000e+00 -6.0142597522694774e-01  7.3630821815807987e+00 0.0000000000000000e+00 -6.3916122602032643e-01  7.4582923580085039e+00 0.0000000000000000e+00 -6.7753260014290928e-01  7.5573683251207724e+00 0.0000000000000000e+00 -7.1931897861440397e-01  7.6532680003720293e+00 0.0000000000000000e+00 -7.5789589208124386e-01  7.7532114749724776e+00 0.0000000000000000e+00 -8.0721431172896274e-01  7.8493693240295457e+00 0.0000000000000000e+00 -8.4860345104285140e-01  7.9453520604296184e+00 0.0000000000000000e+00 -8.8901413638009041e-01  8.0462763103180883e+00 0.0000000000000000e+00 -9.3437958665756660e-01  8.1447641583259145e+00 0.0000000000000000e+00 -9.8058002195542437e-01  8.2391911794209030e+00 0.0000000000000000e+00 -1.0184491896574168e+00  8.3385892391017897e+00 0.0000000000000000e+00 -1.0684453278988848e+00  8.4340157377100642e+00 0.0000000000000000e+00 -1.1102449963499839e+00  8.5309713958092992e+00 0.0000000000000000e+00 -1.1522987784592864e+00  8.6284732160554487e+00 0.0000000000000000e+00 -1.2014028847646570e+00  8.7260508047565999e+00 0.0000000000000000e+00 -1.2527303338587221e+00  8.8211040587778982e+00 0.0000000000000000e+00 -1.2957576403008475e+00  8.9195014750129928e+00 0.0000000000000000e+00 -1.3464161625471405e+00  9.0144533188491174e+00 0.0000000000000000e+00 -1.3892092709493276e+00  9.1113270404525686e+00 0.0000000000000000e+00 -1.4333515968994608e+00  9.2076498849118007e+00 0.0000000000000000e+00 -1.4678912009578142e+00  9.3069004206177670e+00 0.0000000000000000e+00 -1.5000428604242269e+00  9.4138099829764474e+00 0.0000000000000000e+00 -1.5242397491142197e+00  9.5290647044311108e+00 0.0000000000000000e+00 -1.5440881242947999e+00  9.6538725022620024e+00 0.0000000000000000e+00 -1.5776019276925195e+00  9.7859726213733786e+00 0.0000000000000000e+00 -1.6282004067860740e+00  9.8851787615276514e+00 2.8807022679897037e-01 -1.7074963012171178e+00  9.8323732962138521e+00 5.4492808276028204e-01 -1.8084865163461843e+00  9.7494012419320448e+00 7.6630505655733028e-01 -1.9544436174229727e+00  9.6426873982439822e+00 9.2954167475388316e-01 -2.1337090604207933e+00  9.5204783857712307e+00 1.0414156182119114e+00 -2.3313369628423510e+00  9.3837933519280980e+00 1.1010515122867128e+00 -2.5269105185069125e+00  9.1662021444816748e+00 1.1058873488316310e+00 -2.6517666165074094e+00  9.0785306447959488e+00 1.0927975699242076e+00 -2.5847983833562314e+00  8.9922201348005757e+00 1.0824327824377789e+00 -2.5196258747504987e+00  8.9054818476640349e+00 1.0705864061520614e+00 -2.4528080128221186e+00  8.8205966661431745e+00 1.0613502338281056e+00 -2.3924969970081764e+00  8.7366201827132031e+00 1.0562482845627399e+00 -2.3348626007006157e+00  8.6528452061875054e+00 1.0512345480505225e+00 -2.2773245501637627e+00  8.5682479896170278e+00 1.0495570268963847e+00 -2.2211008370290095e+00  8.4827023092603344e+00 1.0478147756857030e+00 -2.1645361505280594e+00  8.3973325531054446e+00 1.0466167461599900e+00 -2.1101060578315556e+00  8.3105690866721300e+00 1.0466386282700355e+00 -2.0557455274308696e+00  8.2231844935202894e+00 1.0495057443574347e+00 -2.0050827964979003e+00  8.1348214556549703e+00 1.0493056541472812e+00 -1.9535711608529012e+00  8.0458296763112287e+00 1.0489842118912414e+00 -1.9037931625693076e+00  7.9569812197551713e+00 1.0511662406488660e+00 -1.8583770887624658e+00  7.8649625384436623e+00 1.0502758988547043e+00 -1.8112051969122718e+00  7.7755774157297308e+00 1.0516650649614128e+00 -1.7629713691501392e+00  7.6849755949218386e+00 1.0543232035392252e+00 -1.7167376342265008e+00  7.5946808383258739e+00 1.0553429796988867e+00 -1.6723081265856716e+00  7.5036345743517900e+00 1.0576393193581046e+00 -1.6275461999723577e+00  7.4123423018896064e+00 1.0591054250074914e+00 -1.5829457493559935e+00  7.3205478073862098e+00 1.0595986506136454e+00 -1.5384941680503488e+00  7.2282020549419634e+00 1.0613196672670635e+00 -1.4966170474439238e+00  7.1360610649552125e+00 1.0587990851250899e+00 -1.4553512067382819e+00  7.0438622591805595e+00 1.0600593418501500e+00 -1.4165070220432932e+00  6.9514407633947712e+00 1.0607818153602826e+00 -1.3775451291653009e+00  6.8584104670784676e+00 1.0612356792038202e+00 -1.3392414565455464e+00  6.7653848092218469e+00 1.0608339638413904e+00 -1.3015207164185476e+00  6.6722751695527105e+00 1.0621671738226195e+00 -1.2650936526600622e+00  6.5791443945766970e+00 1.0610907188756094e+00 -1.2275419226167359e+00  6.4857733135136408e+00 1.0615046831370403e+00 -1.1914824198095850e+00  6.3924822453138690e+00 1.0628244476989566e+00 -1.1565485323298856e+00  6.2991691673058527e+00 1.0610921047044208e+00 -1.1215672623334940e+00  6.2055500867897031e+00 1.0598688599236390e+00 -1.0873861459822771e+00  6.1122717052828612e+00 1.0593955526189007e+00 -1.0539981174005768e+00  6.0189272712413580e+00 1.0585227594681783e+00 -1.0206188735404511e+00  5.9258330333073621e+00 1.0578085179078132e+00 -9.8752273027759696e-01  5.8323442325863510e+00 1.0596580614138698e+00 -9.5515790482365204e-01  5.7387689803448811e+00 1.0612039243549132e+00 -9.2408521626053641e-01  5.6454159972163120e+00 1.0587785808419572e+00 -8.9268702260077604e-01  5.5517985064872546e+00 1.0581449583958729e+00 -8.6214461344607030e-01  5.4582920658090792e+00 1.0593019085894479e+00 -8.3273408257346415e-01  5.3652346979797647e+00 1.0571920283125296e+00 -8.0217599381510207e-01  5.2716538551223655e+00 1.0580770328334441e+00 -7.7287964295426004e-01  5.1780904090099424e+00 1.0591258688291769e+00 -7.4462488760186407e-01  5.0846621132689469e+00 1.0585650686429653e+00 -7.1573824969016497e-01  4.9917439659814011e+00 1.0586655562432643e+00 -6.8806864483314345e-01  4.8981878138041521e+00 1.0598127364314354e+00 -6.6130294878774420e-01  4.8045901231656387e+00 1.0585264235853313e+00 -6.3317560767474179e-01  4.7104526708938357e+00 1.0593472065730813e+00 -6.0549026999121602e-01  4.6166911660255874e+00 1.0601572860420851e+00 -5.8090476647010769e-01  4.5223016840909578e+00 1.0611390823207776e+00 -5.5769906909741418e-01  4.4278506577174133e+00 1.0587772860244888e+00 -5.3380828624862164e-01  4.3349411024072602e+00 1.0600906363664895e+00 -5.0957093066036774e-01  4.2414190092568402e+00 1.0601558377641385e+00 -4.8772850044805716e-01  4.1472932089334291e+00 1.0602777986184202e+00 -4.6478387954165601e-01  4.0532944495811734e+00 1.0590882254065552e+00 -4.4153103439863201e-01  3.9592969833488092e+00 1.0606097135578600e+00 -4.2041674779332949e-01  3.8657474011084192e+00 1.0602309035774202e+00 -4.0033075380001582e-01  3.7724344784389117e+00 1.0603246657699663e+00 -3.8098249286008523e-01  3.6781744040663584e+00 1.0620611872346122e+00 -3.6250245444655382e-01  3.5841956447707157e+00 1.0601590279166007e+00 -3.4362111165441150e-01  3.4896001218376602e+00 1.0594793537883131e+00 -3.2520527345134975e-01  3.3954178876973300e+00 1.0602538309372582e+00 -3.0852440797840358e-01  3.3012028133904816e+00 1.0590891311550064e+00 -2.9097319901613877e-01  3.2069300196258341e+00 1.0557944319267774e+00 -2.7294467375267367e-01  3.1130044729426327e+00 1.0563408668864434e+00 -2.5892233723353325e-01  3.0188875638126702e+00 1.0551831800023292e+00 -2.4363847420770932e-01  2.9249962454144964e+00 1.0560067056414375e+00 -2.2845738128448384e-01  2.8312310200127206e+00 1.0561339352088561e+00 -2.1300958648822974e-01  2.7369184879940680e+00 1.0562755730114259e+00 -1.9752722899534531e-01  2.6423826983668550e+00 1.0563527365288863e+00 -1.8297576996804502e-01  2.5481047298365422e+00 1.0573666040722263e+00 -1.7010614665494694e-01  2.4539484546727897e+00 1.0575005390202625e+00 -1.5686557751392335e-01  2.3596577798956222e+00 1.0577327398720646e+00 -1.4382820805906871e-01  2.2656676356304328e+00 1.0566080056247329e+00 -1.3104460673085394e-01  2.1717817644800514e+00 1.0565544520463017e+00 -1.2006465818746018e-01  2.0779014317385451e+00 1.0578326431764686e+00 -1.0948252811155912e-01  1.9832777058691993e+00 1.0578795850190967e+00 -9.8994196669854539e-02  1.8886015780665442e+00 1.0568698190639985e+00 -8.7394057185428198e-02  1.7942692723200773e+00 1.0585744583540693e+00 -7.8172457823693989e-02  1.6994741380222200e+00 1.0595191895177520e+00 -6.8763458447701001e-02  1.6049993862158711e+00 1.0569417666706327e+00 -5.8578741860096040e-02  1.5105239743649046e+00 1.0572545009516949e+00 -5.1283281685018715e-02  1.4165348347630682e+00 1.0568778785532529e+00 -4.4645543517782063e-02  1.3224045036729708e+00 1.0572929772047150e+00 -3.7620754400980422e-02  1.2282048505258747e+00 1.0566419189211456e+00 -2.9581888691567946e-02  1.1339379463664601e+00 1.0585266330658709e+00 -2.4643236427860656e-02  1.0395699592718144e+00 1.0589770845652271e+00 -1.9500410774325651e-02  9.4507461032832030e-01 1.0588094493947564e+00 -1.4494019311607209e-02  8.5025100152475974e-01 1.0580456480618607e+00 -1.0475352001587774e-02  7.5573974294705937e-01 1.0574509475513687e+00 -7.5251517126904014e-03  6.6091791659841848e-01 1.0573042547567340e+00 -4.9807935771293563e-03  5.6586651665416043e-01 1.0560831209053678e+00 -1.6874706978716029e-03  4.7147817734794534e-01 1.0549074468578397e+00 -1.0206582136043120e-04  3.7693418896535413e-01 1.0552675304202752e+00 -5.2734080070900545e-04  2.8244579314184254e-01 1.0523254260979424e+00 7.4417987858895694e-05  1.8807761210938939e-01 1.0514052356567842e+00 0.0000000000000000e+00  9.3893041385234896e-02 1.0491104162475542e+00 0.0000000000000000e+00  9.2808314449011480e+00 9.5145162711143583e-01 -2.6755039717237676e+00  9.3041079639892335e+00 7.6924749167072004e-01 -2.6487210832391819e+00  9.3307118097889497e+00 5.9149003062393657e-01 -2.6285730095163546e+00  9.3420766874876975e+00 3.8984494017737875e-01 -2.6189412025431977e+00  9.3581554244707430e+00 1.9078300898277864e-01 -2.6074840796816643e+00  9.2834185353394414e+00 0.0000000000000000e+00 -2.5355897405991694e+00  9.1957502401654008e+00 0.0000000000000000e+00 -2.4800692154987058e+00  9.1053489960275176e+00 0.0000000000000000e+00 -2.4195972376525292e+00  9.0124994725739960e+00 0.0000000000000000e+00 -2.3667539976320553e+00  8.9204830053540825e+00 0.0000000000000000e+00 -2.3197931001480652e+00  8.8261034109480079e+00 0.0000000000000000e+00 -2.2682391070422749e+00  8.7340431435286394e+00 0.0000000000000000e+00 -2.2236475511231060e+00  8.6384132371642028e+00 0.0000000000000000e+00 -2.1792607946098075e+00  8.5424217711548653e+00 0.0000000000000000e+00 -2.1273903359001634e+00  8.4478517647715030e+00 0.0000000000000000e+00 -2.0895514745188803e+00  8.3530355417270687e+00 0.0000000000000000e+00 -2.0467006972811026e+00  8.2599786581059433e+00 0.0000000000000000e+00 -1.9997100883284216e+00  8.1664500553627182e+00 0.0000000000000000e+00 -1.9505472267999320e+00  8.0707748775341610e+00 0.0000000000000000e+00 -1.9022565761119179e+00  7.9779408348042287e+00 0.0000000000000000e+00 -1.8658222573873533e+00  7.8858240584499830e+00 0.0000000000000000e+00 -1.8247280743991741e+00  7.7937420615332238e+00 0.0000000000000000e+00 -1.7783212279045573e+00  7.6984111139508959e+00 0.0000000000000000e+00 -1.7308386411222452e+00  7.6031947348588647e+00 0.0000000000000000e+00 -1.6982104160608424e+00  7.5107215805929579e+00 0.0000000000000000e+00 -1.6532099497712049e+00  7.4168880105080310e+00 0.0000000000000000e+00 -1.6083607124440973e+00  7.3256701402721456e+00 0.0000000000000000e+00 -1.5714053172854749e+00  7.2322484673118996e+00 0.0000000000000000e+00 -1.5253393475884360e+00  7.1377966298867284e+00 0.0000000000000000e+00 -1.4899398429666444e+00  7.0464048123281664e+00 0.0000000000000000e+00 -1.4500255885415718e+00  6.9536200964941948e+00 0.0000000000000000e+00 -1.4073280944208155e+00  6.8588549380910111e+00 0.0000000000000000e+00 -1.3667112909387358e+00  6.7645210802958493e+00 0.0000000000000000e+00 -1.3347801056788848e+00  6.6709527889022109e+00 0.0000000000000000e+00 -1.2956334422335050e+00  6.5771794473007379e+00 0.0000000000000000e+00 -1.2626890538677484e+00  6.4864779745063013e+00 0.0000000000000000e+00 -1.2295486712688597e+00  6.3940329452961739e+00 0.0000000000000000e+00 -1.1918387021871681e+00  6.3004447074938934e+00 0.0000000000000000e+00 -1.1477014725549293e+00  6.2056666795904816e+00 0.0000000000000000e+00 -1.1177201924425959e+00  6.1109607845677152e+00 0.0000000000000000e+00 -1.0769797254296953e+00  6.0190097946658616e+00 0.0000000000000000e+00 -1.0513568696688502e+00  5.9250837385616686e+00 0.0000000000000000e+00 -1.0145691419094272e+00  5.8288685796683462e+00 0.0000000000000000e+00 -9.7857214475972387e-01  5.7348505688611899e+00 0.0000000000000000e+00 -9.5036342183509581e-01  5.6428149473281843e+00 0.0000000000000000e+00 -9.1419381415513279e-01  5.5513352084925316e+00 0.0000000000000000e+00 -8.9016527952117896e-01  5.4600290217662462e+00 0.0000000000000000e+00 -8.5603244870379369e-01  5.3652442263746556e+00 0.0000000000000000e+00 -8.2224081055462173e-01  5.2743385923741837e+00 0.0000000000000000e+00 -8.0163410698271009e-01  5.1819929914760410e+00 0.0000000000000000e+00 -7.7248790730587702e-01  5.0875720808661749e+00 0.0000000000000000e+00 -7.3684034568106072e-01  4.9940485666861898e+00 0.0000000000000000e+00 -7.1484426259974287e-01  4.8995233204608617e+00 0.0000000000000000e+00 -6.8603757050849257e-01  4.8036231045506161e+00 0.0000000000000000e+00 -6.6424461510433830e-01  4.7109486785724330e+00 0.0000000000000000e+00 -6.3831804861599684e-01  4.6172217372570774e+00 0.0000000000000000e+00 -6.1618505245633048e-01  4.5225963656787700e+00 0.0000000000000000e+00 -5.8584820849121522e-01  4.430