<?xml version="1.0"?>
<VTKFile type="UnstructuredGrid"  version="0.1"  >
<UnstructuredGrid>
<Piece  NumberOfPoints="3069" NumberOfCells="12882">
<Points>
<DataArray  type="Float64"  NumberOfComponents="3"  format="ascii">0 0 0  0 0 4  0 5.65685415 0  50 0 4  50 5.65685415 0  50 0 0  0 0 1  0 0 2  0 0 3  0 1.04967844 3.90746784  0 2.0669806 3.632725  0 3.02052855 3.18424606  0 3.88091111 2.5758636  0 4.62159061 1.82634306  0 5.21972132 0.958802283  0 4.71404505 0  0 3.77123618 0  0 2.82842708 0  0 1.88561809 0  0 0.942809045 0  0.5 0 4  1 0 4  1.5 0 4  2 0 4  2.5 0 4  3 0 4  3.5 0 4  4 0 4  4.5 0 4  5 0 4  5.5 0 4  6 0 4  6.5 0 4  7 0 4  7.5 0 4  8 0 4  8.5 0 4  9 0 4  9.5 0 4  10 0 4  10.5 0 4  11 0 4  11.5 0 4  12 0 4  12.5 0 4  13 0 4  13.5 0 4  14 0 4  14.5 0 4  15 0 4  15.5 0 4  16 0 4  16.5 0 4  17 0 4  17.5 0 4  18 0 4  18.5 0 4  19 0 4  19.5 0 4  20 0 4  20.5 0 4  21 0 4  21.5 0 4  22 0 4  22.5 0 4  23 0 4  23.5 0 4  24 0 4  24.5 0 4  25 0 4  25.5 0 4  26 0 4  26.5 0 4  27 0 4  27.5 0 4  28 0 4  28.5 0 4  29 0 4  29.5 0 4  30 0 4  30.5 0 4  31 0 4  31.5 0 4  32 0 4  32.5 0 4  33 0 4  33.5 0 4  34 0 4  34.5 0 4  35 0 4  35.5 0 4  36 0 4  36.5 0 4  37 0 4  37.5 0 4  38 0 4  38.5 0 4  39 0 4  39.5 0 4  40 0 4  40.5 0 4  41 0 4  41.5 0 4  42 0 4  42.5 0 4  43 0 4  43.5 0 4  44 0 4  44.5 0 4  45 0 4  45.5 0 4  46 0 4  46.5 0 4  47 0 4  47.5 0 4  48 0 4  48.5 0 4  49 0 4  49.5 0 4  50 1.04967844 3.90746784  50 2.0669806 3.632725  50 3.02052855 3.18424606  50 3.88091111 2.5758636  50 4.62159061 1.82634306  50 5.21972132 0.958802283  49.5 5.65685415 0  49 5.65685415 0  48.5 5.65685415 0  48 5.65685415 0  47.5 5.65685415 0  47 5.65685415 0  46.5 5.65685415 0  46 5.65685415 0  45.5 5.65685415 0  45 5.65685415 0  44.5 5.65685415 0  44 5.65685415 0  43.5 5.65685415 0  43 5.65685415 0  42.5 5.65685415 0  42 5.65685415 0  41.5 5.65685415 0  41 5.65685415 0  40.5 5.65685415 0  40 5.65685415 0  39.5 5.65685415 0  39 5.65685415 0  38.5 5.65685415 0  38 5.65685415 0  37.5 5.65685415 0  37 5.65685415 0  36.5 5.65685415 0  36 5.65685415 0  35.5 5.65685415 0  35 5.65685415 0  34.5 5.65685415 0  34 5.65685415 0  33.5 5.65685415 0  33 5.65685415 0  32.5 5.65685415 0  32 5.65685415 0  31.5 5.65685415 0  31 5.65685415 0  30.5 5.65685415 0  30 5.65685415 0  29.5 5.65685415 0  29 5.65685415 0  28.5 5.65685415 0  28 5.65685415 0  27.5 5.65685415 0  27 5.65685415 0  26.5 5.65685415 0  26 5.65685415 0  25.5 5.65685415 0  25 5.65685415 0  24.5 5.65685415 0  24 5.65685415 0  23.5 5.65685415 0  23 5.65685415 0  22.5 5.65685415 0  22 5.65685415 0  21.5 5.65685415 0  21 5.65685415 0  20.5 5.65685415 0  20 5.65685415 0  19.5 5.65685415 0  19 5.65685415 0  18.5 5.65685415 0  18 5.65685415 0  17.5 5.65685415 0  17 5.65685415 0  16.5 5.65685415 0  16 5.65685415 0  15.5 5.65685415 0  15 5.65685415 0  14.5 5.65685415 0  14 5.65685415 0  13.5 5.65685415 0  13 5.65685415 0  12.5 5.65685415 0  12 5.65685415 0  11.5 5.65685415 0  11 5.65685415 0  10.5 5.65685415 0  10 5.65685415 0  9.5 5.65685415 0  9 5.65685415 0  8.5 5.65685415 0  8 5.65685415 0  7.5 5.65685415 0  7 5.65685415 0  6.5 5.65685415 0  6 5.65685415 0  5.5 5.65685415 0  5 5.65685415 0  4.5 5.65685415 0  4 5.65685415 0  3.5 5.65685415 0  3 5.65685415 0  2.5 5.65685415 0  2 5.65685415 0  1.5 5.65685415 0  1 5.65685415 0  0.5 5.65685415 0  50 4.71404505 0  50 3.77123618 0  50 2.82842708 0  50 1.88561809 0  50 0.942809045 0  49.5 0 0  49 0 0  48.5 0 0  48 0 0  47.5 0 0  47 0 0  46.5 0 0  46 0 0  45.5 0 0  45 0 0  44.5 0 0  44 0 0  43.5 0 0  43 0 0  42.5 0 0  42 0 0  41.5 0 0  41 0 0  40.5 0 0  40 0 0  39.5 0 0  39 0 0  38.5 0 0  38 0 0  37.5 0 0  37 0 0  36.5 0 0  36 0 0  35.5 0 0  35 0 0  34.5 0 0  34 0 0  33.5 0 0  33 0 0  32.5 0 0  32 0 0  31.5 0 0  31 0 0  30.5 0 0  30 0 0  29.5 0 0  29 0 0  28.5 0 0  28 0 0  27.5 0 0  27 0 0  26.5 0 0  26 0 0  25.5 0 0  25 0 0  24.5 0 0  24 0 0  23.5 0 0  23 0 0  22.5 0 0  22 0 0  21.5 0 0  21 0 0  20.5 0 0  20 0 0  19.5 0 0  19 0 0  18.5 0 0  18 0 0  17.5 0 0  17 0 0  16.5 0 0  16 0 0  15.5 0 0  15 0 0  14.5 0 0  14 0 0  13.5 0 0  13 0 0  12.5 0 0  12 0 0  11.5 0 0  11 0 0  10.5 0 0  10 0 0  9.5 0 0  9 0 0  8.5 0 0  8 0 0  7.5 0 0  7 0 0  6.5 0 0  6 0 0  5.5 0 0  5 0 0  4.5 0 0  4 0 0  3.5 0 0  3 0 0  2.5 0 0  2 0 0  1.5 0 0  1 0 0  0.5 0 0  50 0 1  50 0 2  50 0 3  0 2.33524275 0.893602192  0 2.87561393 1.93323028  0 4.2367816 0.876864135  0 2.00050235 2.65534091  0 0.981494486 2.34323239  0 3.78543234 1.61830366  0 3.30545568 0.887000024  0 0.812916458 1.58408713  0 1.71948838 1.71268857  0 1.28267908 0.8650629520000001  0 1.21973121 3.10775328  0.5 5.21972132 0.958802223  0.5 4.62159061 1.82634306  0.5 3.88091111 2.5758636  0.5 3.02052855 3.18424606  0.5 2.0669806 3.632725  0.5 1.04967844 3.90746784  1 5.21972132 0.958802223  1 4.62159061 1.82634306  1 3.88091111 2.5758636  1 3.02052855 3.18424606  1 2.0669806 3.632725  1 1.04967844 3.90746784  1.5 5.21972132 0.958802223  1.5 4.62159061 1.82634306  1.5 3.88091111 2.5758636  1.5 3.02052855 3.18424606  1.5 2.0669806 3.632725  1.5 1.04967844 3.90746784  2 5.21972132 0.958802223  2 4.62159061 1.82634306  2 3.88091111 2.5758636  2 3.02052855 3.18424606  2 2.0669806 3.632725  2 1.04967844 3.90746784  2.5 5.21972132 0.958802223  2.5 4.62159061 1.82634306  2.5 3.88091111 2.5758636  2.5 3.02052855 3.18424606  2.5 2.0669806 3.632725  2.5 1.04967844 3.90746784  3 5.21972132 0.958802223  3 4.62159061 1.82634306  3 3.88091111 2.5758636  3 3.02052855 3.18424606  3 2.0669806 3.632725  3 1.04967844 3.90746784  3.5 5.21972132 0.958802223  3.5 4.62159061 1.82634306  3.5 3.88091111 2.5758636  3.5 3.02052855 3.18424606  3.5 2.0669806 3.632725  3.5 1.04967844 3.90746784  4 5.21972132 0.958802223  4 4.62159061 1.82634306  4 3.88091111 2.5758636  4 3.02052855 3.18424606  4 2.0669806 3.632725  4 1.04967844 3.90746784  4.5 5.21972132 0.958802223  4.5 4.62159061 1.82634306  4.5 3.88091111 2.5758636  4.5 3.02052855 3.18424606  4.5 2.0669806 3.632725  4.5 1.04967844 3.90746784  5 5.21972132 0.958802223  5 4.62159061 1.82634306  5 3.88091111 2.5758636  5 3.02052855 3.18424606  5 2.0669806 3.632725  5 1.04967844 3.90746784  5.5 5.21972132 0.958802223  5.5 4.62159061 1.82634306  5.5 3.88091111 2.5758636  5.5 3.02052855 3.18424606  5.5 2.0669806 3.632725  5.5 1.04967844 3.90746784  6 5.21972132 0.958802223  6 4.62159061 1.82634306  6 3.88091111 2.5758636  6 3.02052855 3.18424606  6 2.0669806 3.632725  6 1.04967844 3.90746784  6.5 5.21972132 0.958802223  6.5 4.62159061 1.82634306  6.5 3.88091111 2.5758636  6.5 3.02052855 3.18424606  6.5 2.0669806 3.632725  6.5 1.04967844 3.90746784  7 5.21972132 0.958802223  7 4.62159061 1.82634306  7 3.88091111 2.5758636  7 3.02052855 3.18424606  7 2.0669806 3.632725  7 1.04967844 3.90746784  7.5 5.21972132 0.958802223  7.5 4.62159061 1.82634306  7.5 3.88091111 2.5758636  7.5 3.02052855 3.18424606  7.5 2.0669806 3.632725  7.5 1.04967844 3.90746784  8 5.21972132 0.958802223  8 4.62159061 1.82634306  8 3.88091111 2.5758636  8 3.02052855 3.18424606  8 2.0669806 3.632725  8 1.04967844 3.90746784  8.5 5.21972132 0.958802223  8.5 4.62159061 1.82634306  8.5 3.88091111 2.5758636  8.5 3.02052855 3.18424606  8.5 2.0669806 3.632725  8.5 1.04967844 3.90746784  9 5.21972132 0.958802223  9 4.62159061 1.82634306  9 3.88091111 2.5758636  9 3.02052855 3.18424606  9 2.0669806 3.632725  9 1.04967844 3.90746784  9.5 5.21972132 0.958802223  9.5 4.62159061 1.82634306  9.5 3.88091111 2.5758636  9.5 3.02052855 3.18424606  9.5 2.0669806 3.632725  9.5 1.04967844 3.90746784  10 5.21972132 0.958802223  10 4.62159061 1.82634306  10 3.88091111 2.5758636  10 3.02052855 3.18424606  10 2.0669806 3.632725  10 1.04967844 3.90746784  10.5 5.21972132 0.958802223  10.5 4.62159061 1.82634306  10.5 3.88091111 2.5758636  10.5 3.02052855 3.18424606  10.5 2.0669806 3.632725  10.5 1.04967844 3.90746784  11 5.21972132 0.958802223  11 4.62159061 1.82634306  11 3.88091111 2.5758636  11 3.02052855 3.18424606  11 2.0669806 3.632725  11 1.04967844 3.90746784  11.5 5.21972132 0.958802223  11.5 4.62159061 1.82634306  11.5 3.88091111 2.5758636  11.5 3.02052855 3.18424606  11.5 2.0669806 3.632725  11.5 1.04967844 3.90746784  12 5.21972132 0.958802223  12 4.62159061 1.82634306  12 3.88091111 2.5758636  12 3.02052855 3.18424606  12 2.0669806 3.632725  12 1.04967844 3.90746784  12.5 5.21972132 0.958802223  12.5 4.62159061 1.82634306  12.5 3.88091111 2.5758636  12.5 3.02052855 3.18424606  12.5 2.0669806 3.632725  12.5 1.04967844 3.90746784  13 5.21972132 0.958802223  13 4.62159061 1.82634306  13 3.88091111 2.5758636  13 3.02052855 3.18424606  13 2.0669806 3.632725  13 1.04967844 3.90746784  13.5 5.21972132 0.958802223  13.5 4.62159061 1.82634306  13.5 3.88091111 2.5758636  13.5 3.02052855 3.18424606  13.5 2.0669806 3.632725  13.5 1.04967844 3.90746784  14 5.21972132 0.958802223  14 4.62159061 1.82634306  14 3.88091111 2.5758636  14 3.02052855 3.18424606  14 2.0669806 3.632725  14 1.04967844 3.90746784  14.5 5.21972132 0.958802223  14.5 4.62159061 1.82634306  14.5 3.88091111 2.5758636  14.5 3.02052855 3.18424606  14.5 2.0669806 3.632725  14.5 1.04967844 3.90746784  15 5.21972132 0.958802223  15 4.62159061 1.82634306  15 3.88091111 2.5758636  15 3.02052855 3.18424606  15 2.0669806 3.632725  15 1.04967844 3.90746784  15.5 5.21972132 0.958802223  15.5 4.62159061 1.82634306  15.5 3.88091111 2.5758636  15.5 3.02052855 3.18424606  15.5 2.0669806 3.632725  15.5 1.04967844 3.90746784  16 5.21972132 0.958802223  16 4.62159061 1.82634306  16 3.88091111 2.5758636  16 3.02052855 3.18424606  16 2.0669806 3.632725  16 1.04967844 3.90746784  16.5 5.21972132 0.958802223  16.5 4.62159061 1.82634306  16.5 3.88091111 2.5758636  16.5 3.02052855 3.18424606  16.5 2.0669806 3.632725  16.5 1.04967844 3.90746784  17 5.21972132 0.958802223  17 4.62159061 1.82634306  17 3.88091111 2.5758636  17 3.02052855 3.18424606  17 2.0669806 3.632725  17 1.04967844 3.90746784  17.5 5.21972132 0.958802223  17.5 4.62159061 1.82634306  17.5 3.88091111 2.5758636  17.5 3.02052855 3.18424606  17.
[...]
<PointData  Vectors="f_261141-0"> 
<DataArray  type="Float64"  Name="f_261141-0"  NumberOfComponents="3" format="ascii">0.0000000000000000e+00 0.0000000000000000e+00 0.0000000000000000e+00  0.0000000000000000e+00 0.0000000000000000e+00 7.3457390368970976e-01  0.0000000000000000e+00 1.0259117396890953e+00 0.0000000000000000e+00  9.2259544610114617e+00 0.0000000000000000e+00 4.3341985034658126e-01  9.0531914931117825e+00 1.0631091955464005e+00 -4.4252857417645791e-01  9.1036401190103113e+00 0.0000000000000000e+00 -3.8989159600908940e-01  0.0000000000000000e+00 0.0000000000000000e+00 1.7992049829192397e-01  0.0000000000000000e+00 0.0000000000000000e+00 3.6577987439732429e-01  0.0000000000000000e+00 0.0000000000000000e+00 5.5340890555704392e-01  0.0000000000000000e+00 1.9626371320222749e-01 7.1603553396002773e-01  0.0000000000000000e+00 3.8075950253611363e-01 6.6125642348597291e-01  0.0000000000000000e+00 5.5366445827245780e-01 5.7827204139495614e-01  0.0000000000000000e+00 7.0874887001701803e-01 4.6672952490450836e-01  0.0000000000000000e+00 8.4176746805881897e-01 3.2935873680059219e-01  0.0000000000000000e+00 9.4863296886893811e-01 1.7267323964900813e-01  0.0000000000000000e+00 8.5651976877775571e-01 0.0000000000000000e+00  0.0000000000000000e+00 6.8648191206098075e-01 0.0000000000000000e+00  0.0000000000000000e+00 5.1630740259850261e-01 0.0000000000000000e+00  0.0000000000000000e+00 3.4553479454121871e-01 0.0000000000000000e+00  0.0000000000000000e+00 1.7336999180594395e-01 0.0000000000000000e+00  9.1276380131856627e-02 0.0000000000000000e+00 7.3481200136551084e-01  1.8282803725367605e-01 0.0000000000000000e+00 7.3488036707295978e-01  2.7436800441095233e-01 0.0000000000000000e+00 7.3506274087407852e-01  3.6611187573785497e-01 0.0000000000000000e+00 7.3459632633352634e-01  4.5707916158175671e-01 0.0000000000000000e+00 7.3538863879585570e-01  5.4899166058721904e-01 0.0000000000000000e+00 7.3424146129309775e-01  6.4007584130949491e-01 0.0000000000000000e+00 7.3400197008622814e-01  7.3199143315238080e-01 0.0000000000000000e+00 7.3263452200444268e-01  8.2346145142376492e-01 0.0000000000000000e+00 7.3152521259584935e-01  9.1486157141450020e-01 0.0000000000000000e+00 7.3014535523564039e-01  1.0060832787485940e+00 0.0000000000000000e+00 7.2953088384739517e-01  1.0975332931810684e+00 0.0000000000000000e+00 7.2935805396069942e-01  1.1890475428284801e+00 0.0000000000000000e+00 7.2862803021485911e-01  1.2810601983031082e+00 0.0000000000000000e+00 7.2669058331256742e-01  1.3719881597222012e+00 0.0000000000000000e+00 7.2629288399777447e-01  1.4639594826679512e+00 0.0000000000000000e+00 7.2480852891785152e-01  1.5553973594028416e+00 0.0000000000000000e+00 7.2343431385061940e-01  1.6469177317225447e+00 0.0000000000000000e+00 7.2181170339512724e-01  1.7381761207458029e+00 0.0000000000000000e+00 7.2085443837756136e-01  1.8294829592981203e+00 0.0000000000000000e+00 7.1964744264230474e-01  1.9208314980588348e+00 0.0000000000000000e+00 7.1903059089621135e-01  2.0121160533499434e+00 0.0000000000000000e+00 7.1686589268751899e-01  2.1037186781488275e+00 0.0000000000000000e+00 7.1566777633325040e-01  2.1952386320581758e+00 0.0000000000000000e+00 7.1365515557042991e-01  2.2864071598453579e+00 0.0000000000000000e+00 7.1255210705738037e-01  2.3782375444798283e+00 0.0000000000000000e+00 7.0998077064899290e-01  2.4698517108542708e+00 0.0000000000000000e+00 7.0762980204512171e-01  2.5610180962650135e+00 0.0000000000000000e+00 7.0621058831848016e-01  2.6526444145091923e+00 0.0000000000000000e+00 7.0386063622693362e-01  2.7444273578174534e+00 0.0000000000000000e+00 7.0070150207322612e-01  2.8348583081311629e+00 0.0000000000000000e+00 7.0067453933255530e-01  2.9260435681922665e+00 0.0000000000000000e+00 6.9765434970840512e-01  3.0176477150042977e+00 0.0000000000000000e+00 6.9479719294810727e-01  3.1092662123631367e+00 0.0000000000000000e+00 6.9195092863205687e-01  3.2011141040324684e+00 0.0000000000000000e+00 6.8904438270823709e-01  3.2927305656091406e+00 0.0000000000000000e+00 6.8650799071860957e-01  3.3844853787285558e+00 0.0000000000000000e+00 6.8378331900608491e-01  3.4757615533011079e+00 0.0000000000000000e+00 6.8178155245686878e-01  3.5675201607222200e+00 0.0000000000000000e+00 6.7807138613394202e-01  3.6588471658873067e+00 0.0000000000000000e+00 6.7558511563610402e-01  3.7497663243747219e+00 0.0000000000000000e+00 6.7331237423022317e-01  3.8416170933058247e+00 0.0000000000000000e+00 6.7032799163514845e-01  3.9327405203608672e+00 0.0000000000000000e+00 6.6741042424458108e-01  4.0248557605365676e+00 0.0000000000000000e+00 6.6269474971821596e-01  4.1158208894560664e+00 0.0000000000000000e+00 6.5988935870207766e-01  4.2071493298779021e+00 0.0000000000000000e+00 6.5634152402734836e-01  4.2985286536779537e+00 0.0000000000000000e+00 6.5350999677363586e-01  4.3901926182257531e+00 0.0000000000000000e+00 6.4966512528189435e-01  4.4816024015395897e+00 0.0000000000000000e+00 6.4627274318648786e-01  4.5732500103462277e+00 0.0000000000000000e+00 6.4236661090253433e-01  4.6648900182664352e+00 0.0000000000000000e+00 6.3811873326451019e-01  4.7560632859005194e+00 0.0000000000000000e+00 6.3497118318457968e-01  4.8478184072961374e+00 0.0000000000000000e+00 6.3020433759819483e-01  4.9389317776783273e+00 0.0000000000000000e+00 6.2689522048892155e-01  5.0304570531382602e+00 0.0000000000000000e+00 6.2251937847631011e-01  5.1224192389789076e+00 0.0000000000000000e+00 6.1832892056720878e-01  5.2137954895067073e+00 0.0000000000000000e+00 6.1384288024801226e-01  5.3050112848252828e+00 0.0000000000000000e+00 6.0975552871205929e-01  5.3964223778327423e+00 0.0000000000000000e+00 6.0599899736009688e-01  5.4882463503269916e+00 0.0000000000000000e+00 6.0075668993509490e-01  5.5797147348855169e+00 0.0000000000000000e+00 5.9542485051723393e-01  5.6708886562974792e+00 0.0000000000000000e+00 5.9161252048233193e-01  5.7624905097930679e+00 0.0000000000000000e+00 5.8645334616660472e-01  5.8540325959901738e+00 0.0000000000000000e+00 5.8141687318613311e-01  5.9451682254595948e+00 0.0000000000000000e+00 5.7767704757365246e-01  6.0370289251055551e+00 0.0000000000000000e+00 5.7228163877807081e-01  6.1286321521783655e+00 0.0000000000000000e+00 5.6742134961615009e-01  6.2197975866284683e+00 0.0000000000000000e+00 5.6246623031459031e-01  6.3114916485555108e+00 0.0000000000000000e+00 5.5675240622128730e-01  6.4027577602029746e+00 0.0000000000000000e+00 5.5132202077392511e-01  6.4940679233947955e+00 0.0000000000000000e+00 5.4637885690879506e-01  6.5854851929691396e+00 0.0000000000000000e+00 5.4048720481660550e-01  6.6772710686111614e+00 0.0000000000000000e+00 5.3418338159158407e-01  6.7687794588580887e+00 0.0000000000000000e+00 5.2853687710316921e-01  6.8603329460811917e+00 0.0000000000000000e+00 5.2304046662331405e-01  6.9514015889753109e+00 0.0000000000000000e+00 5.1758205864013629e-01  7.0431167471684564e+00 0.0000000000000000e+00 5.1146112720622017e-01  7.1343424168456950e+00 0.0000000000000000e+00 5.0600150112440101e-01  7.2262962575851883e+00 0.0000000000000000e+00 4.9883648037851558e-01  7.3176097738310917e+00 0.0000000000000000e+00 4.9294250583741439e-01  7.4087692466946269e+00 0.0000000000000000e+00 4.8735763351606476e-01  7.5006496042430708e+00 0.0000000000000000e+00 4.8075084681596592e-01  7.5922595563326496e+00 0.0000000000000000e+00 4.7420508991983479e-01  7.6830276926078165e+00 0.0000000000000000e+00 4.6925232518444188e-01  7.7747908171072515e+00 0.0000000000000000e+00 4.6218350873239861e-01  7.8658159258905043e+00 0.0000000000000000e+00 4.5685962891904797e-01  7.9568862102313345e+00 0.0000000000000000e+00 4.5209910632472705e-01  8.0483617745135660e+00 0.0000000000000000e+00 4.4597373318616218e-01  8.1399239325811479e+00 0.0000000000000000e+00 4.4004659681768615e-01  8.2308837299351136e+00 0.0000000000000000e+00 4.3662183924742698e-01  8.3230619266268242e+00 0.0000000000000000e+00 4.3108233372007160e-01  8.4139547210680412e+00 0.0000000000000000e+00 4.2924746370075584e-01  8.5064428859691219e+00 0.0000000000000000e+00 4.2581666484048181e-01  8.5990159943211726e+00 0.0000000000000000e+00 4.2798831077526650e-01  8.6935065437603267e+00 0.0000000000000000e+00 4.3175336322994007e-01  8.7916653282605957e+00 0.0000000000000000e+00 4.3887641780257819e-01  8.8943590157112506e+00 0.0000000000000000e+00 4.4681984795755159e-01  9.0020890853927220e+00 0.0000000000000000e+00 4.4872062929241480e-01  9.1140158311651209e+00 0.0000000000000000e+00 4.4363333566301016e-01  9.2146486987974274e+00 2.3658002273445561e-01 4.1216389132154069e-01  9.1965329921416377e+00 4.5400592851491872e-01 3.3444073665990698e-01  9.1719434432871605e+00 6.4377447166290358e-01 2.2024550617230737e-01  9.1435702227815110e+00 7.9764561970968051e-01 7.6921486023064006e-02  9.1134852664967898e+00 9.2005438041359666e-01 -8.5209068539059060e-02  9.0815145602441749e+00 1.0085528207459582e+00 -2.6008489927220740e-01  8.9624520385569024e+00 1.0560945823408197e+00 -4.2957177446217265e-01  8.8719925325732341e+00 1.0499835866938718e+00 -4.1523129399884307e-01  8.7821464494856958e+00 1.0449190625863378e+00 -4.0150481282305400e-01  8.6922447069852087e+00 1.0391824280689654e+00 -3.8719257032277782e-01  8.6032784072396620e+00 1.0344244668468034e+00 -3.7518275861038430e-01  8.5148987027623608e+00 1.0313820951514694e+00 -3.6405383387384033e-01  8.4267434414560025e+00 1.0289132570693611e+00 -3.5311147354613526e-01  8.3385574206592583e+00 1.0275282182363810e+00 -3.4271341057955451e-01  8.2499381613256197e+00 1.0261290188186878e+00 -3.3198138865969523e-01  8.1615675323404631e+00 1.0251635070575074e+00 -3.2223408563568517e-01  8.0727295231328409e+00 1.0244840776888025e+00 -3.1232645947135246e-01  7.9837333899268099e+00 1.0247040481002141e+00 -3.0374758396427459e-01  7.8944160992553911e+00 1.0242596794774581e+00 -2.9512568038000653e-01  7.8049048275772321e+00 1.0238891276375053e+00 -2.8680213760227291e-01  7.7154365595445267e+00 1.0240412250257389e+00 -2.7932247793922965e-01  7.6255877120245845e+00 1.0241032356730044e+00 -2.7129207535045902e-01  7.5358348975858318e+00 1.0244817561616051e+00 -2.6350055101154302e-01  7.4458309951021224e+00 1.0249695522524376e+00 -2.5622407648145806e-01  7.3558002940603204e+00 1.0251875309419556e+00 -2.4917551525139434e-01  7.2655572119311866e+00 1.0257053341721021e+00 -2.4219084801350585e-01  7.1752500359259832e+00 1.0259937433506268e+00 -2.3534135728113653e-01  7.0848162847683787e+00 1.0261982486788472e+00 -2.2857471387658529e-01  6.9942768876136006e+00 1.0265340760503667e+00 -2.2219169217543883e-01  6.9037359363107971e+00 1.0263028444739402e+00 -2.1593245544395945e-01  6.8131623087771001e+00 1.0265911662557508e+00 -2.1002368232091861e-01  6.7225412122997517e+00 1.0267709066557955e+00 -2.0414493742351586e-01  6.6318194805303428e+00 1.0269298951378583e+00 -1.9839459481286179e-01  6.5410827025190192e+00 1.0268993904213464e+00 -1.9271077152739510e-01  6.4503276485758185e+00 1.0271755698306919e+00 -1.8726633842986318e-01  6.3595459177334170e+00 1.0270725729725401e+00 -1.8169046179131862e-01  6.2687294197749504e+00 1.0271810179446115e+00 -1.7633350874829215e-01  6.1779208442849836e+00 1.0273885007431485e+00 -1.7114541729780192e-01  6.0871054364721084e+00 1.0271737130078411e+00 -1.6595188454642273e-01  5.9962477776463308e+00 1.0270505738588036e+00 -1.6088892318061862e-01  5.9054407564961720e+00 1.0270130408929790e+00 -1.5594554254924489e-01  5.8146175090554175e+00 1.0269114153460022e+00 -1.5100867861161330e-01  5.7238292908988262e+00 1.0268231931041278e+00 -1.4611687108283086e-01  5.6329956881465337e+00 1.0270949575873667e+00 -1.4133468680557404e-01  5.5421551111039369e+00 1.0273194565989638e+00 -1.3671793962026096e-01  5.4513405819887657e+00 1.0270145160654522e+00 -1.3206345045579751e-01  5.3604962112046879e+00 1.0269464489923512e+00 -1.2754209860984639e-01  5.2696617304924800e+00 1.0271039805376396e+00 -1.2317193717023900e-01  5.1788813226687704e+00 1.0268207047882156e+00 -1.1866664151663305e-01  5.0880473286656418e+00 1.0269411814495357e+00 -1.1435769904368610e-01  4.9972167576866449e+00 1.0270684608139529e+00 -1.1018016700562959e-01  4.9063979426096758e+00 1.0269968131774543e+00 -1.0593887652536309e-01  4.8156568840775495e+00 1.0270101693769953e+00 -1.0185943919047059e-01  4.7248413752047256e+00 1.0271583161774176e+00 -9.7901571099103593e-02  4.6340148779539057e+00 1.0269899049452471e+00 -9.3787718960960845e-02  4.5431148758733508e+00 1.0270906606927790e+00 -8.9744082133086017e-02  4.4522829269532513e+00 1.0271890819152638e+00 -8.6099429707837558e-02  4.3613728931486433e+00 1.0273190006809434e+00 -8.2660939136344092e-02  4.2704501089863403e+00 1.0269843347267820e+00 -7.9134319359416505e-02  4.1797530260724303e+00 1.0271774510890614e+00 -7.5543349957923250e-02  4.0889560880538793e+00 1.0271722872573070e+00 -7.2322652594035947e-02  3.9980808418829645e+00 1.0271851075221796e+00 -6.8960804736400330e-02  3.9072205942166423e+00 1.0270286054287852e+00 -6.5564521226404687e-02  3.8163664811990929e+00 1.0272132265456455e+00 -6.2447781770270508e-02  3.7255790784920557e+00 1.0271557072005781e+00 -5.9475999662359891e-02  3.6348276429826800e+00 1.0271642724571033e+00 -5.6603830825620122e-02  3.5439543825045829e+00 1.0274004977349485e+00 -5.3852536013666769e-02  3.4531163548431576e+00 1.0271592978778727e+00 -5.1058544742346473e-02  3.3621993709322759e+00 1.0270718723261563e+00 -4.8334850864013852e-02  3.2713381111252429e+00 1.0271715383989675e+00 -4.5831782223438859e-02  3.1804642603739599e+00 1.0270478608483076e+00 -4.3235870202787414e-02  3.0895801365604787e+00 1.0266256736277761e+00 -4.0586078014988369e-02  2.9987526466847436e+00 1.0267122281657473e+00 -3.8477739415326319e-02  2.9078982777065199e+00 1.0265538087866086e+00 -3.6194420221494814e-02  2.8170742806072693e+00 1.0266746731882392e+00 -3.3936477899915884e-02  2.7262612846295120e+00 1.0266956906394329e+00 -3.1651659288222625e-02  2.6353782867042286e+00 1.0267105399984331e+00 -2.9379585312549285e-02  2.5444664085441406e+00 1.0267126927768477e+00 -2.7248192683773719e-02  2.4535951928432107e+00 1.0268288938331178e+00 -2.5338416047131825e-02  2.3627422031655456e+00 1.0268438446122019e+00 -2.3395038110845229e-02  2.2718710990505313e+00 1.0268754657213122e+00 -2.1479461828810525e-02  2.1810447595179507e+00 1.0267287273348020e+00 -1.9604295679750826e-02  2.0902349703677472e+00 1.0267159127690506e+00 -1.7973515329469242e-02  1.9994281417634754e+00 1.0268860152340362e+00 -1.6408464276244077e-02  1.9085257165280149e+00 1.0268835629682662e+00 -1.4862796665408500e-02  1.8176077651830906e+00 1.0267437708960181e+00 -1.3172956282904155e-02  1.7267398877665623e+00 1.0269560727529428e+00 -1.1799262016428171e-02  1.6358140513230854e+00 1.0270755664455835e+00 -1.0406814642200578e-02  1.5449247009486649e+00 1.0267441809198963e+00 -8.9319741561156001e-03  1.4540404423313653e+00 1.0267981823107379e+00 -7.8591934692211519e-03  1.3632206901208841e+00 1.0267360771832850e+00 -6.8695912650722519e-03  1.2723806179533108e+00 1.0267838943814753e+00 -5.8379542910270516e-03  1.1815323211265649e+00 1.0266866188435082e+00 -4.6739284361848581e-03  1.0906844181706090e+00 1.0269260451757780e+00 -3.9286948794084592e-03  9.9982219717418042e-01 1.0269816313543125e+00 -3.1507062744203194e-03  9.0893660341421290e-01 1.0269664218803871e+00 -2.4075845981921143e-03  8.1800532670976611e-01 1.0268696836641766e+00 -1.7957808577438342e-03  7.2711875578260154e-01 1.0268017467399062e+00 -1.3451379264508255e-03  6.3619167063951898e-01 1.0267838256970276e+00 -9.4457353632390845e-04  5.4522869760339920e-01 1.0266325386472790e+00 -4.5620575747457634e-04  4.5435442970911938e-01 1.0264836000162811e+00 -1.8144182159556921e-04  3.6346056553437978e-01 1.0265709504056217e+00 -1.8418492741660979e-04  2.7257743718019517e-01 1.0262079895133804e+00 -5.3699298037778107e-05  1.8170178861734498e-01 1.0261261508560688e+00 0.0000000000000000e+00  9.0835966381646455e-02 1.0258247319411877e+00 0.0000000000000000e+00  9.0642745704234873e+00 8.9311872722574026e-01 -4.2529098716602109e-01  9.0744332582443104e+00 7.1844156522542246e-01 -4.1342119626502899e-01  9.0861014794280575e+00 5.4496380366449526e-01 -4.0387375543818860e-01  9.0912311475645726e+00 3.6187805478535684e-01 -4.0008325978175263e-01  9.0989604066439647e+00 1.8017739833014285e-01 -3.9403425021815380e-01  9.0135941828424144e+00 0.0000000000000000e+00 -3.7645847643550756e-01  8.9224580295541500e+00 0.0000000000000000e+00 -3.6577114201822575e-01  8.8303413129826556e+00 0.0000000000000000e+00 -3.5258607572325867e-01  8.7377517403004195e+00 0.0000000000000000e+00 -3.4269787553336967e-01  8.6461106139410724e+00 0.0000000000000000e+00 -3.3561928325424456e-01  8.5537246739949158e+00 0.0000000000000000e+00 -3.2709749481121719e-01  8.4622648561833351e+00 0.0000000000000000e+00 -3.2069994441989202e-01  8.3700593101194336e+00 0.0000000000000000e+00 -3.1467266570578412e-01  8.2775871561693233e+00 0.0000000000000000e+00 -3.0659581572269012e-01  8.1857909961896205e+00 0.0000000000000000e+00 -3.0219130813426681e-01  8.0938876142340490e+00 0.0000000000000000e+00 -2.9676266687289460e-01  8.0022856962919047e+00 0.0000000000000000e+00 -2.9027825216394770e-01  7.9106400994415100e+00 0.0000000000000000e+00 -2.8358256366324452e-01  7.8186897132623399e+00 0.0000000000000000e+00 -2.7688859223826240e-01  7.7272509436963537e+00 0.0000000000000000e+00 -2.7209911318938723e-01  7.6360340840720466e+00 0.0000000000000000e+00 -2.6638697683189827e-01  7.5448711973915250e+00 0.0000000000000000e+00 -2.6006155932634550e-01  7.4531458954250214e+00 0.0000000000000000e+00 -2.5331440143031170e-01  7.3616347414594063e+00 0.0000000000000000e+00 -2.4884787971707356e-01  7.2705300528438244e+00 0.0000000000000000e+00 -2.4249093310849204e-01  7.1792059283253646e+00 0.0000000000000000e+00 -2.3598656069437821e-01  7.0883930668675985e+00 0.0000000000000000e+00 -2.3084545621642658e-01  6.9971721708858832e+00 0.0000000000000000e+00 -2.2417096346115323e-01  6.9059194068884056e+00 0.0000000000000000e+00 -2.1906880569434845e-01  6.8151728042124722e+00 0.0000000000000000e+00 -2.1336086847095556e-01  6.7242381541074439e+00 0.0000000000000000e+00 -2.0719715498223407e-01  6.6330549047227727e+00 0.0000000000000000e+00 -2.0118035723561559e-01  6.5420070067727156e+00 0.0000000000000000e+00 -1.9656220871667074e-01  6.4509962866512023e+00 0.0000000000000000e+00 -1.9075407884729811e-01  6.3600115053634863e+00 0.0000000000000000e+00 -1.8598173112697947e-01  6.2694754305362190e+00 0.0000000000000000e+00 -1.8108884747878978e-01  6.1787068435666486e+00 0.0000000000000000e+00 -1.7555455274593612e-01  6.0876828701204353e+00 0.0000000000000000e+00 -1.6920474157277832e-01  5.9966495696845010e+00 0.0000000000000000e+00 -1.6478248938234877e-01  5.9055694241827972e+00 0.0000000000000000e+00 -1.5878118519988388e-01  5.8149577590773625e+00 0.0000000000000000e+00 -1.5501806288405731e-01  5.7240215260550782e+00 0.0000000000000000e+00 -1.4959182217940176e-01  5.6327762636314702e+00 0.0000000000000000e+00 -1.4435677049297757e-01  5.5418617515079589e+00 0.0000000000000000e+00 -1.4026290466944916e-01  5.4511270852282845e+00 0.0000000000000000e+00 -1.3493048772121852e-01  5.3605755502679475e+00 0.0000000000000000e+00 -1.3131303556963309e-01  5.2700192942269481e+00 0.0000000000000000e+00 -1.2628649232634923e-01  5.1789727236673526e+00 0.0000000000000000e+00 -1.2128864606056113e-01  5.0884999443769736e+00 0.0000000000000000e+00 -1.1817134940237907e-01  4.9978503936236374e+00 0.0000000000000000e+00 -1.1389811189018038e-01  4.9068454924678351e+00 0.0000000000000000e+00 -1.0872004577625921e-01  4.8160580408996463e+00 0.0000000000000000e+00 -1.0551288968785524e-01  4.7250449886112484e+00 0.0000000000000000e+00 -1.0119702542879204e-01  4.6340051707889138e+00 0.0000000000000000e+00 -9.8029513053384462e-02  4.5433110211595462e+00 0.0000000000000000e+00 -9.4167536766964099e-02  4.4525154298640048e+00 0.0000000000000000e+00 -9.0708745490414702e-02  4.3615283188015592e+00 0.0000000000000000e+00 -8.6292261541015977e-02  4.2709144182286609e+00 0.0000000000000000e+00 -8.413