<?xml version="1.0"?>
<VTKFile type="UnstructuredGrid"  version="0.1"  >
<UnstructuredGrid>
<Piece  NumberOfPoints="3069" NumberOfCells="12882">
<Points>
<DataArray  type="Float64"  NumberOfComponents="3"  format="ascii">0 0 0  0 0 4  0 5.65685415 0  50 0 4  50 5.65685415 0  50 0 0  0 0 1  0 0 2  0 0 3  0 1.04967844 3.90746784  0 2.0669806 3.632725  0 3.02052855 3.18424606  0 3.88091111 2.5758636  0 4.62159061 1.82634306  0 5.21972132 0.958802283  0 4.71404505 0  0 3.77123618 0  0 2.82842708 0  0 1.88561809 0  0 0.942809045 0  0.5 0 4  1 0 4  1.5 0 4  2 0 4  2.5 0 4  3 0 4  3.5 0 4  4 0 4  4.5 0 4  5 0 4  5.5 0 4  6 0 4  6.5 0 4  7 0 4  7.5 0 4  8 0 4  8.5 0 4  9 0 4  9.5 0 4  10 0 4  10.5 0 4  11 0 4  11.5 0 4  12 0 4  12.5 0 4  13 0 4  13.5 0 4  14 0 4  14.5 0 4  15 0 4  15.5 0 4  16 0 4  16.5 0 4  17 0 4  17.5 0 4  18 0 4  18.5 0 4  19 0 4  19.5 0 4  20 0 4  20.5 0 4  21 0 4  21.5 0 4  22 0 4  22.5 0 4  23 0 4  23.5 0 4  24 0 4  24.5 0 4  25 0 4  25.5 0 4  26 0 4  26.5 0 4  27 0 4  27.5 0 4  28 0 4  28.5 0 4  29 0 4  29.5 0 4  30 0 4  30.5 0 4  31 0 4  31.5 0 4  32 0 4  32.5 0 4  33 0 4  33.5 0 4  34 0 4  34.5 0 4  35 0 4  35.5 0 4  36 0 4  36.5 0 4  37 0 4  37.5 0 4  38 0 4  38.5 0 4  39 0 4  39.5 0 4  40 0 4  40.5 0 4  41 0 4  41.5 0 4  42 0 4  42.5 0 4  43 0 4  43.5 0 4  44 0 4  44.5 0 4  45 0 4  45.5 0 4  46 0 4  46.5 0 4  47 0 4  47.5 0 4  48 0 4  48.5 0 4  49 0 4  49.5 0 4  50 1.04967844 3.90746784  50 2.0669806 3.632725  50 3.02052855 3.18424606  50 3.88091111 2.5758636  50 4.62159061 1.82634306  50 5.21972132 0.958802283  49.5 5.65685415 0  49 5.65685415 0  48.5 5.65685415 0  48 5.65685415 0  47.5 5.65685415 0  47 5.65685415 0  46.5 5.65685415 0  46 5.65685415 0  45.5 5.65685415 0  45 5.65685415 0  44.5 5.65685415 0  44 5.65685415 0  43.5 5.65685415 0  43 5.65685415 0  42.5 5.65685415 0  42 5.65685415 0  41.5 5.65685415 0  41 5.65685415 0  40.5 5.65685415 0  40 5.65685415 0  39.5 5.65685415 0  39 5.65685415 0  38.5 5.65685415 0  38 5.65685415 0  37.5 5.65685415 0  37 5.65685415 0  36.5 5.65685415 0  36 5.65685415 0  35.5 5.65685415 0  35 5.65685415 0  34.5 5.65685415 0  34 5.65685415 0  33.5 5.65685415 0  33 5.65685415 0  32.5 5.65685415 0  32 5.65685415 0  31.5 5.65685415 0  31 5.65685415 0  30.5 5.65685415 0  30 5.65685415 0  29.5 5.65685415 0  29 5.65685415 0  28.5 5.65685415 0  28 5.65685415 0  27.5 5.65685415 0  27 5.65685415 0  26.5 5.65685415 0  26 5.65685415 0  25.5 5.65685415 0  25 5.65685415 0  24.5 5.65685415 0  24 5.65685415 0  23.5 5.65685415 0  23 5.65685415 0  22.5 5.65685415 0  22 5.65685415 0  21.5 5.65685415 0  21 5.65685415 0  20.5 5.65685415 0  20 5.65685415 0  19.5 5.65685415 0  19 5.65685415 0  18.5 5.65685415 0  18 5.65685415 0  17.5 5.65685415 0  17 5.65685415 0  16.5 5.65685415 0  16 5.65685415 0  15.5 5.65685415 0  15 5.65685415 0  14.5 5.65685415 0  14 5.65685415 0  13.5 5.65685415 0  13 5.65685415 0  12.5 5.65685415 0  12 5.65685415 0  11.5 5.65685415 0  11 5.65685415 0  10.5 5.65685415 0  10 5.65685415 0  9.5 5.65685415 0  9 5.65685415 0  8.5 5.65685415 0  8 5.65685415 0  7.5 5.65685415 0  7 5.65685415 0  6.5 5.65685415 0  6 5.65685415 0  5.5 5.65685415 0  5 5.65685415 0  4.5 5.65685415 0  4 5.65685415 0  3.5 5.65685415 0  3 5.65685415 0  2.5 5.65685415 0  2 5.65685415 0  1.5 5.65685415 0  1 5.65685415 0  0.5 5.65685415 0  50 4.71404505 0  50 3.77123618 0  50 2.82842708 0  50 1.88561809 0  50 0.942809045 0  49.5 0 0  49 0 0  48.5 0 0  48 0 0  47.5 0 0  47 0 0  46.5 0 0  46 0 0  45.5 0 0  45 0 0  44.5 0 0  44 0 0  43.5 0 0  43 0 0  42.5 0 0  42 0 0  41.5 0 0  41 0 0  40.5 0 0  40 0 0  39.5 0 0  39 0 0  38.5 0 0  38 0 0  37.5 0 0  37 0 0  36.5 0 0  36 0 0  35.5 0 0  35 0 0  34.5 0 0  34 0 0  33.5 0 0  33 0 0  32.5 0 0  32 0 0  31.5 0 0  31 0 0  30.5 0 0  30 0 0  29.5 0 0  29 0 0  28.5 0 0  28 0 0  27.5 0 0  27 0 0  26.5 0 0  26 0 0  25.5 0 0  25 0 0  24.5 0 0  24 0 0  23.5 0 0  23 0 0  22.5 0 0  22 0 0  21.5 0 0  21 0 0  20.5 0 0  20 0 0  19.5 0 0  19 0 0  18.5 0 0  18 0 0  17.5 0 0  17 0 0  16.5 0 0  16 0 0  15.5 0 0  15 0 0  14.5 0 0  14 0 0  13.5 0 0  13 0 0  12.5 0 0  12 0 0  11.5 0 0  11 0 0  10.5 0 0  10 0 0  9.5 0 0  9 0 0  8.5 0 0  8 0 0  7.5 0 0  7 0 0  6.5 0 0  6 0 0  5.5 0 0  5 0 0  4.5 0 0  4 0 0  3.5 0 0  3 0 0  2.5 0 0  2 0 0  1.5 0 0  1 0 0  0.5 0 0  50 0 1  50 0 2  50 0 3  0 2.33524275 0.893602192  0 2.87561393 1.93323028  0 4.2367816 0.876864135  0 2.00050235 2.65534091  0 0.981494486 2.34323239  0 3.78543234 1.61830366  0 3.30545568 0.887000024  0 0.812916458 1.58408713  0 1.71948838 1.71268857  0 1.28267908 0.8650629520000001  0 1.21973121 3.10775328  0.5 5.21972132 0.958802223  0.5 4.62159061 1.82634306  0.5 3.88091111 2.5758636  0.5 3.02052855 3.18424606  0.5 2.0669806 3.632725  0.5 1.04967844 3.90746784  1 5.21972132 0.958802223  1 4.62159061 1.82634306  1 3.88091111 2.5758636  1 3.02052855 3.18424606  1 2.0669806 3.632725  1 1.04967844 3.90746784  1.5 5.21972132 0.958802223  1.5 4.62159061 1.82634306  1.5 3.88091111 2.5758636  1.5 3.02052855 3.18424606  1.5 2.0669806 3.632725  1.5 1.04967844 3.90746784  2 5.21972132 0.958802223  2 4.62159061 1.82634306  2 3.88091111 2.5758636  2 3.02052855 3.18424606  2 2.0669806 3.632725  2 1.04967844 3.90746784  2.5 5.21972132 0.958802223  2.5 4.62159061 1.82634306  2.5 3.88091111 2.5758636  2.5 3.02052855 3.18424606  2.5 2.0669806 3.632725  2.5 1.04967844 3.90746784  3 5.21972132 0.958802223  3 4.62159061 1.82634306  3 3.88091111 2.5758636  3 3.02052855 3.18424606  3 2.0669806 3.632725  3 1.04967844 3.90746784  3.5 5.21972132 0.958802223  3.5 4.62159061 1.82634306  3.5 3.88091111 2.5758636  3.5 3.02052855 3.18424606  3.5 2.0669806 3.632725  3.5 1.04967844 3.90746784  4 5.21972132 0.958802223  4 4.62159061 1.82634306  4 3.88091111 2.5758636  4 3.02052855 3.18424606  4 2.0669806 3.632725  4 1.04967844 3.90746784  4.5 5.21972132 0.958802223  4.5 4.62159061 1.82634306  4.5 3.88091111 2.5758636  4.5 3.02052855 3.18424606  4.5 2.0669806 3.632725  4.5 1.04967844 3.90746784  5 5.21972132 0.958802223  5 4.62159061 1.82634306  5 3.88091111 2.5758636  5 3.02052855 3.18424606  5 2.0669806 3.632725  5 1.04967844 3.90746784  5.5 5.21972132 0.958802223  5.5 4.62159061 1.82634306  5.5 3.88091111 2.5758636  5.5 3.02052855 3.18424606  5.5 2.0669806 3.632725  5.5 1.04967844 3.90746784  6 5.21972132 0.958802223  6 4.62159061 1.82634306  6 3.88091111 2.5758636  6 3.02052855 3.18424606  6 2.0669806 3.632725  6 1.04967844 3.90746784  6.5 5.21972132 0.958802223  6.5 4.62159061 1.82634306  6.5 3.88091111 2.5758636  6.5 3.02052855 3.18424606  6.5 2.0669806 3.632725  6.5 1.04967844 3.90746784  7 5.21972132 0.958802223  7 4.62159061 1.82634306  7 3.88091111 2.5758636  7 3.02052855 3.18424606  7 2.0669806 3.632725  7 1.04967844 3.90746784  7.5 5.21972132 0.958802223  7.5 4.62159061 1.82634306  7.5 3.88091111 2.5758636  7.5 3.02052855 3.18424606  7.5 2.0669806 3.632725  7.5 1.04967844 3.90746784  8 5.21972132 0.958802223  8 4.62159061 1.82634306  8 3.88091111 2.5758636  8 3.02052855 3.18424606  8 2.0669806 3.632725  8 1.04967844 3.90746784  8.5 5.21972132 0.958802223  8.5 4.62159061 1.82634306  8.5 3.88091111 2.5758636  8.5 3.02052855 3.18424606  8.5 2.0669806 3.632725  8.5 1.04967844 3.90746784  9 5.21972132 0.958802223  9 4.62159061 1.82634306  9 3.88091111 2.5758636  9 3.02052855 3.18424606  9 2.0669806 3.632725  9 1.04967844 3.90746784  9.5 5.21972132 0.958802223  9.5 4.62159061 1.82634306  9.5 3.88091111 2.5758636  9.5 3.02052855 3.18424606  9.5 2.0669806 3.632725  9.5 1.04967844 3.90746784  10 5.21972132 0.958802223  10 4.62159061 1.82634306  10 3.88091111 2.5758636  10 3.02052855 3.18424606  10 2.0669806 3.632725  10 1.04967844 3.90746784  10.5 5.21972132 0.958802223  10.5 4.62159061 1.82634306  10.5 3.88091111 2.5758636  10.5 3.02052855 3.18424606  10.5 2.0669806 3.632725  10.5 1.04967844 3.90746784  11 5.21972132 0.958802223  11 4.62159061 1.82634306  11 3.88091111 2.5758636  11 3.02052855 3.18424606  11 2.0669806 3.632725  11 1.04967844 3.90746784  11.5 5.21972132 0.958802223  11.5 4.62159061 1.82634306  11.5 3.88091111 2.5758636  11.5 3.02052855 3.18424606  11.5 2.0669806 3.632725  11.5 1.04967844 3.90746784  12 5.21972132 0.958802223  12 4.62159061 1.82634306  12 3.88091111 2.5758636  12 3.02052855 3.18424606  12 2.0669806 3.632725  12 1.04967844 3.90746784  12.5 5.21972132 0.958802223  12.5 4.62159061 1.82634306  12.5 3.88091111 2.5758636  12.5 3.02052855 3.18424606  12.5 2.0669806 3.632725  12.5 1.04967844 3.90746784  13 5.21972132 0.958802223  13 4.62159061 1.82634306  13 3.88091111 2.5758636  13 3.02052855 3.18424606  13 2.0669806 3.632725  13 1.04967844 3.90746784  13.5 5.21972132 0.958802223  13.5 4.62159061 1.82634306  13.5 3.88091111 2.5758636  13.5 3.02052855 3.18424606  13.5 2.0669806 3.632725  13.5 1.04967844 3.90746784  14 5.21972132 0.958802223  14 4.62159061 1.82634306  14 3.88091111 2.5758636  14 3.02052855 3.18424606  14 2.0669806 3.632725  14 1.04967844 3.90746784  14.5 5.21972132 0.958802223  14.5 4.62159061 1.82634306  14.5 3.88091111 2.5758636  14.5 3.02052855 3.18424606  14.5 2.0669806 3.632725  14.5 1.04967844 3.90746784  15 5.21972132 0.958802223  15 4.62159061 1.82634306  15 3.88091111 2.5758636  15 3.02052855 3.18424606  15 2.0669806 3.632725  15 1.04967844 3.90746784  15.5 5.21972132 0.958802223  15.5 4.62159061 1.82634306  15.5 3.88091111 2.5758636  15.5 3.02052855 3.18424606  15.5 2.0669806 3.632725  15.5 1.04967844 3.90746784  16 5.21972132 0.958802223  16 4.62159061 1.82634306  16 3.88091111 2.5758636  16 3.02052855 3.18424606  16 2.0669806 3.632725  16 1.04967844 3.90746784  16.5 5.21972132 0.958802223  16.5 4.62159061 1.82634306  16.5 3.88091111 2.5758636  16.5 3.02052855 3.18424606  16.5 2.0669806 3.632725  16.5 1.04967844 3.90746784  17 5.21972132 0.958802223  17 4.62159061 1.82634306  17 3.88091111 2.5758636  17 3.02052855 3.18424606  17 2.0669806 3.632725  17 1.04967844 3.90746784  17.5 5.21972132 0.958802223  17.5 4.62159061 1.82634306  17.5 3.88091111 2.5758636  17.5 3.02052855 3.18424606  17.
[...]
<PointData  Vectors="f_261141-0"> 
<DataArray  type="Float64"  Name="f_261141-0"  NumberOfComponents="3" format="ascii">0.0000000000000000e+00 0.0000000000000000e+00 0.0000000000000000e+00  0.0000000000000000e+00 0.0000000000000000e+00 2.7513222444651342e-01  0.0000000000000000e+00 5.0446356832403716e-01 0.0000000000000000e+00  3.5058947254431412e+00 0.0000000000000000e+00 3.7639642812866239e+00  4.2525302057171102e+00 4.2005893162247276e-01 3.7400079091334661e+00  4.1495338909906492e+00 0.0000000000000000e+00 3.6242435626539007e+00  0.0000000000000000e+00 0.0000000000000000e+00 9.6579331427378803e-02  0.0000000000000000e+00 0.0000000000000000e+00 1.4968444347597323e-01  0.0000000000000000e+00 0.0000000000000000e+00 1.8629800354196135e-01  0.0000000000000000e+00 4.8172822698606933e-02 2.7940746758442503e-01  0.0000000000000000e+00 1.3203700535830068e-01 2.9798702700202506e-01  0.0000000000000000e+00 2.1627888852266192e-01 2.7320608190884293e-01  0.0000000000000000e+00 2.9774351953702088e-01 2.3205059281758089e-01  0.0000000000000000e+00 3.8190439903942747e-01 1.7944978380931675e-01  0.0000000000000000e+00 4.5599700145541727e-01 9.6207927740898563e-02  0.0000000000000000e+00 4.0894383531302386e-01 0.0000000000000000e+00  0.0000000000000000e+00 3.1173902688693789e-01 0.0000000000000000e+00  0.0000000000000000e+00 2.1950052560148556e-01 0.0000000000000000e+00  0.0000000000000000e+00 1.3799111110347523e-01 0.0000000000000000e+00  0.0000000000000000e+00 6.6338639183545017e-02 0.0000000000000000e+00  3.8746450477835280e-02 0.0000000000000000e+00 2.7592410789384508e-01  7.4282249735197620e-02 0.0000000000000000e+00 2.7446099882858166e-01  1.1127136542544012e-01 0.0000000000000000e+00 2.7483289103526543e-01  1.4859314650334188e-01 0.0000000000000000e+00 2.7658189687390028e-01  1.8858295077934703e-01 0.0000000000000000e+00 2.7664765227614940e-01  2.2418635301962817e-01 0.0000000000000000e+00 2.8284435706204891e-01  2.6366574784964214e-01 0.0000000000000000e+00 2.8797818906134087e-01  2.9958817577615027e-01 0.0000000000000000e+00 2.9571568104067314e-01  3.3705668881258566e-01 0.0000000000000000e+00 3.0635256163710695e-01  3.7461467613001170e-01 0.0000000000000000e+00 3.1804984600338920e-01  4.1366045702520549e-01 0.0000000000000000e+00 3.2740795373079556e-01  4.5248644074510880e-01 0.0000000000000000e+00 3.2723241573832268e-01  4.8972741313096119e-01 0.0000000000000000e+00 3.3638532946891592e-01  5.2491821774975422e-01 0.0000000000000000e+00 3.4942651821898763e-01  5.6663483066129905e-01 0.0000000000000000e+00 3.5719361136316574e-01  6.0096406625497278e-01 0.0000000000000000e+00 3.6909981042306955e-01  6.3801696205552749e-01 0.0000000000000000e+00 3.8122983170789088e-01  6.7494128228312511e-01 0.0000000000000000e+00 3.9687593085883172e-01  7.1408472566048720e-01 0.0000000000000000e+00 4.0740777916058762e-01  7.5272365482765224e-01 0.0000000000000000e+00 4.1806666235747669e-01  7.9053182433007185e-01 0.0000000000000000e+00 4.2899927332734156e-01  8.3046349372307937e-01 0.0000000000000000e+00 4.4707834194385426e-01  8.6797880785041659e-01 0.0000000000000000e+00 4.6021678634927721e-01  9.0519573039555978e-01 0.0000000000000000e+00 4.7653494047108852e-01  9.4362652908161060e-01 0.0000000000000000e+00 4.9265092323041781e-01  9.7922792082729249e-01 0.0000000000000000e+00 5.1217712529969206e-01  1.0149897249158684e+00 0.0000000000000000e+00 5.3487647223761325e-01  1.0541700329886434e+00 0.0000000000000000e+00 5.4944069253292460e-01  1.0895521596847400e+00 0.0000000000000000e+00 5.7005956482758313e-01  1.1254592198562330e+00 0.0000000000000000e+00 5.9540678400218416e-01  1.1686450116065219e+00 0.0000000000000000e+00 6.0536403152094120e-01  1.2083860961231425e+00 0.0000000000000000e+00 6.3113688615591057e-01  1.2437347906000500e+00 0.0000000000000000e+00 6.5935836706363016e-01  1.2815184448612396e+00 0.0000000000000000e+00 6.8224545613792986e-01  1.3175365313312037e+00 0.0000000000000000e+00 7.0943284109909222e-01  1.3550408756126520e+00 0.0000000000000000e+00 7.3200469485098651e-01  1.3895826939068179e+00 0.0000000000000000e+00 7.6007265215328035e-01  1.4271391521177461e+00 0.0000000000000000e+00 7.8153116923098975e-01  1.4633827697890780e+00 0.0000000000000000e+00 8.1207936601084152e-01  1.5003735026535681e+00 0.0000000000000000e+00 8.3712798021457968e-01  1.5398544237089506e+00 0.0000000000000000e+00 8.6358177592171015e-01  1.5742949887892805e+00 0.0000000000000000e+00 8.9038782623492430e-01  1.6120569195607490e+00 0.0000000000000000e+00 9.2007590966980624e-01  1.6461337835766152e+00 0.0000000000000000e+00 9.5693342112593760e-01  1.6856978542297612e+00 0.0000000000000000e+00 9.8499127140510778e-01  1.7234315120746946e+00 0.0000000000000000e+00 1.0177007581476774e+00  1.7602581942811908e+00 0.0000000000000000e+00 1.0467098640649484e+00  1.7950802291965686e+00 0.0000000000000000e+00 1.0806815263988434e+00  1.8326144491999909e+00 0.0000000000000000e+00 1.1151316441148023e+00  1.8675231227919953e+00 0.0000000000000000e+00 1.1522146421085293e+00  1.9045945539649203e+00 0.0000000000000000e+00 1.1909992394265636e+00  1.9418125587064674e+00 0.0000000000000000e+00 1.2246859349796855e+00  1.9762438248627203e+00 0.0000000000000000e+00 1.2658625110117192e+00  2.0134842562725730e+00 0.0000000000000000e+00 1.3034487745265864e+00  2.0497263358149471e+00 0.0000000000000000e+00 1.3405963488501087e+00  2.0825397543682573e+00 0.0000000000000000e+00 1.3783405497363961e+00  2.1212862499851632e+00 0.0000000000000000e+00 1.4196791089791552e+00  2.1578695144568791e+00 0.0000000000000000e+00 1.4626880583038944e+00  2.1941116999690595e+00 0.0000000000000000e+00 1.5036426222536721e+00  2.2268940538194562e+00 0.0000000000000000e+00 1.5494409312982729e+00  2.2636075789662762e+00 0.0000000000000000e+00 1.5948613646496912e+00  2.3008261958007625e+00 0.0000000000000000e+00 1.6366668153215036e+00  2.3361954320354759e+00 0.0000000000000000e+00 1.6801515557315088e+00  2.3736950959828818e+00 0.0000000000000000e+00 1.7271292564021441e+00  2.4099237488597449e+00 0.0000000000000000e+00 1.7705970625400851e+00  2.4434697890406798e+00 0.0000000000000000e+00 1.8170266790312370e+00  2.4802234225840438e+00 0.0000000000000000e+00 1.8628350673908272e+00  2.5173604435581827e+00 0.0000000000000000e+00 1.9118511787487087e+00  2.5504690228365368e+00 0.0000000000000000e+00 1.9610593593971679e+00  2.5862314707731118e+00 0.0000000000000000e+00 2.0140189029064572e+00  2.6221698991791125e+00 0.0000000000000000e+00 2.0622094153630943e+00  2.6575163914656943e+00 0.0000000000000000e+00 2.1144516897591461e+00  2.6891783438027792e+00 0.0000000000000000e+00 2.1719133437315947e+00  2.7245927180796778e+00 0.0000000000000000e+00 2.2250683950142998e+00  2.7606601889264120e+00 0.0000000000000000e+00 2.2762930609262004e+00  2.7969176700653371e+00 0.0000000000000000e+00 2.3318359749907653e+00  2.8300529834263748e+00 0.0000000000000000e+00 2.3873430036879753e+00  2.8656940714397474e+00 0.0000000000000000e+00 2.4416348754307355e+00  2.8977783089605720e+00 0.0000000000000000e+00 2.5020491440854102e+00  2.9327697288310617e+00 0.0000000000000000e+00 2.5603044374330723e+00  2.9685603358569881e+00 0.0000000000000000e+00 2.6182286158533672e+00  3.0002507260370224e+00 0.0000000000000000e+00 2.6763720361685372e+00  3.0345272598676996e+00 0.0000000000000000e+00 2.7387775302307551e+00  3.0710424572678985e+00 0.0000000000000000e+00 2.7964408385517365e+00  3.1039092954079517e+00 0.0000000000000000e+00 2.8545350333694119e+00  3.1380228986578227e+00 0.0000000000000000e+00 2.9165851455275611e+00  3.1729461359258422e+00 0.0000000000000000e+00 2.9742556816459289e+00  3.2053738507343246e+00 0.0000000000000000e+00 3.0375930143428316e+00  3.2402502309467867e+00 0.0000000000000000e+00 3.1011612595829519e+00  3.2738625963112060e+00 0.0000000000000000e+00 3.1643304657043583e+00  3.3050449110168079e+00 0.0000000000000000e+00 3.2285914118671961e+00  3.3381232698801822e+00 0.0000000000000000e+00 3.2915091250236994e+00  3.3707996381256069e+00 0.0000000000000000e+00 3.3512197998286068e+00  3.4038160859860875e+00 0.0000000000000000e+00 3.4057167707513276e+00  3.4333647101321847e+00 0.0000000000000000e+00 3.4571885208758091e+00  3.4554798180117547e+00 0.0000000000000000e+00 3.5094161080990611e+00  3.4731050309345126e+00 0.0000000000000000e+00 3.5645532682793322e+00  3.4870110848978242e+00 0.0000000000000000e+00 3.6245593052428067e+00  3.4958338930936121e+00 0.0000000000000000e+00 3.6880210684150332e+00  3.5392052713076887e+00 2.0538609783425570e-02 3.7607256758196250e+00  3.5956903513399494e+00 5.3022243380615695e-02 3.7745304943720441e+00  3.6740939729338957e+00 9.6672157528690517e-02 3.7946351765175970e+00  3.7807899233793272e+00 1.5621638631658971e-01 3.8077547613476885e+00  3.9184632426023525e+00 2.3211194257920259e-01 3.8174085139204461e+00  4.0908370437051014e+00 3.2476070550711772e-01 3.7959532862056236e+00  4.2145010389113642e+00 4.3480395796205895e-01 3.6598730985604817e+00  4.1742680013959479e+00 4.4955056506055990e-01 3.5766597442956534e+00  4.1344357258367657e+00 4.6346850358994673e-01 3.4919490022835382e+00  4.0938889432756564e+00 4.7514883593773177e-01 3.4078480083781635e+00  4.0506883353771652e+00 4.8529921718458136e-01 3.3260551703586976e+00  4.0057990362870690e+00 4.9253735319917186e-01 3.2460193822776509e+00  3.9598765738339212e+00 4.9722905197196776e-01 3.1680627509337507e+00  3.9134022912175763e+00 4.9875729837887045e-01 3.0920873649800442e+00  3.8686573872042431e+00 4.9997485584304124e-01 3.0156343971536028e+00  3.8230275728439915e+00 4.9964742745315582e-01 2.9430576132079143e+00  3.7791673670952504e+00 5.0103821584174246e-01 2.8702037318948448e+00  3.7356967835952375e+00 5.0133942321443081e-01 2.8001076605170887e+00  3.6926879323302582e+00 5.0139100643477941e-01 2.7327933984316251e+00  3.6499572248473071e+00 5.0165369238783519e-01 2.6666697925504819e+00  3.6088877461544495e+00 5.0083601650031362e-01 2.6007501486994760e+00  3.5674994070982970e+00 4.9983854382921394e-01 2.5355404061042139e+00  3.5258861451342587e+00 4.9874237607128713e-01 2.4729668722775444e+00  3.4846208158939063e+00 4.9755334737557905e-01 2.4126117510928182e+00  3.4434098894942999e+00 4.9879560131763750e-01 2.3509573234881547e+00  3.4021998296687266e+00 4.9743338855625879e-01 2.2895289484690884e+00  3.3611805646835924e+00 4.9436847904213055e-01 2.2285732268267799e+00  3.3193254504409984e+00 4.9468776867884506e-01 2.1670237977531279e+00  3.2781585288381923e+00 4.9257225327957760e-01 2.1079492602375196e+00  3.2364942925462077e+00 4.9351934198446690e-01 2.0499062076538190e+00  3.1956665507624549e+00 4.9281433569394495e-01 1.9923870594897557e+00  3.1541515702266518e+00 4.8870862431940115e-01 1.9385767464080284e+00  3.1125792944873161e+00 4.8971574650959709e-01 1.8850880354988901e+00  3.0716799238365358e+00 4.9188135072555556e-01 1.8304474562647617e+00  3.0307818633527690e+00 4.8961715649187337e-01 1.7799960848847922e+00  2.9906065751685715e+00 4.9176096954364157e-01 1.7276438580998130e+00  2.9491632040701221e+00 4.9061893969522741e-01 1.6778023347405120e+00  2.9078857137283238e+00 4.8782354080900042e-01 1.6290678023971754e+00  2.8662006886914568e+00 4.8883924439269744e-01 1.5807948933117979e+00  2.8250542057870618e+00 4.9028330609927179e-01 1.5331235594057773e+00  2.7836557630119345e+00 4.9003245823131769e-01 1.4864950083891664e+00  2.7427398360007329e+00 4.9191078576897940e-01 1.4392519288455543e+00  2.7017404343234590e+00 4.9256994609645155e-01 1.3923262732825263e+00  2.6596828723670014e+00 4.9222861232157367e-01 1.3472463967996449e+00  2.6176164717249106e+00 4.9093049951255913e-01 1.3037487004973538e+00  2.5759595372231887e+00 4.9377376776047111e-01 1.2601904074923427e+00  2.5340750134804835e+00 4.9442678558247749e-01 1.2165414277363684e+00  2.4917188770153764e+00 4.9254600851822844e-01 1.1754275289802349e+00  2.4481113623795103e+00 4.9284023070210586e-01 1.1333129787113454e+00  2.4064639171940163e+00 4.9226709202154484e-01 1.0888191121225528e+00  2.3649378585137852e+00 4.9030387183130614e-01 1.0477375585934652e+00  2.3230072623617333e+00 4.9159450173524594e-01 1.0083870816054159e+00  2.2807275992528027e+00 4.9309778789566805e-01 9.6921380959033110e-01  2.2383531813017399e+00 4.9145133566552313e-01 9.3288946150314911e-01  2.1957544123776462e+00 4.9124226911944890e-01 8.9457014179722072e-01  2.1533617516676853e+00 4.8996550707228231e-01 8.5649013223834891e-01  2.1102786167897372e+00 4.8918255263885385e-01 8.2196525784834196e-01  2.0679085338044416e+00 4.9050930694352618e-01 7.8634719819718457e-01  2.0258785764002938e+00 4.9036531868506433e-01 7.5392080577616194e-01  1.9835021830761110e+00 4.9193894929990317e-01 7.1737106147199481e-01  1.9412196846764136e+00 4.8795097528382742e-01 6.8426160001629088e-01  1.8979277315296619e+00 4.8788051282297085e-01 6.5231771548803841e-01  1.8548070657620690e+00 4.9004184964189385e-01 6.2105955201583329e-01  1.8126300164046616e+00 4.8993689788004535e-01 5.9015872889134180e-01  1.7695427787292213e+00 4.8942230517197655e-01 5.6189919834620439e-01  1.7265976192762302e+00 4.9041282259863250e-01 5.3256522166486264e-01  1.6836426738032362e+00 4.8852618661181041e-01 5.0625788946114714e-01  1.6407759552592858e+00 4.8982770998557412e-01 4.7975797768246176e-01  1.5974129011340477e+00 4.9148817485887542e-01 4.5535764761590053e-01  1.5553836027087713e+00 4.9116540126197594e-01 4.3032487036252909e-01  1.5125092425396958e+00 4.9206533072678299e-01 4.0710896126943175e-01  1.4689352188495257e+00 4.9304485735457049e-01 3.8478417457586195e-01  1.4254620068895578e+00 4.9320604401343748e-01 3.6263048311706036e-01  1.3833911105532177e+00 4.9509048986850546e-01 3.3914177942879220e-01  1.3403297195928052e+00 4.9350020844829506e-01 3.1814622233705125e-01  1.2971563708636107e+00 4.9382859443999477e-01 2.9532911689713820e-01  1.2539114540012319e+00 4.9203686701329480e-01 2.7444150029881398e-01  1.2110184516510192e+00 4.9342902015136647e-01 2.5268207275827764e-01  1.1684986185921267e+00 4.9208775615359607e-01 2.3285812086416743e-01  1.1244471527308342e+00 4.9207994981699921e-01 2.1359470824518575e-01  1.0812634188783934e+00 4.9086237531133065e-01 1.9463516377627271e-01  1.0370628371567747e+00 4.9253305551491711e-01 1.7708610542750741e-01  9.9398281185050175e-01 4.9306047716343271e-01 1.6130243425312377e-01  9.5122522494247697e-01 4.9294739859119502e-01 1.4616132521643610e-01  9.0831547904246102e-01 4.9370517473105135e-01 1.3172738126484984e-01  8.6507549224803360e-01 4.9285539000217188e-01 1.1784571411858705e-01  8.2158941888989157e-01 4.9148184113516463e-01 1.0392003105509426e-01  7.7857769403129062e-01 4.9139706444430403e-01 9.1760916873687509e-02  7.3560956525079768e-01 4.9248994837806387e-01 7.9676923639881991e-02  6.9258668624134945e-01 4.9458200645195960e-01 6.7464518045563651e-02  6.4978805863201994e-01 4.9294468194153601e-01 5.6332605590011797e-02  6.0645322224036280e-01 4.9346974063114979e-01 4.5732805473512862e-02  5.6203057578867976e-01 4.9199447373690941e-01 3.7145056594721441e-02  5.1879929931413749e-01 4.9146693743519704e-01 2.8079059845765572e-02  4.7549714417682010e-01 4.9107543930477471e-01 2.1764760008613122e-02  4.3205204303291589e-01 4.9209827932864636e-01 1.5620207466980295e-02  3.8971400329900274e-01 4.9471127556253536e-01 9.6839093672574476e-03  3.4660604845771031e-01 4.9546893190792130e-01 5.8672890227980130e-03  3.0372640024015019e-01 4.9526305293206430e-01 2.7901019673009422e-03  2.5986543628641851e-01 4.9819820925001712e-01 1.6163477345808124e-03  2.1621306439769741e-01 5.0107464722768591e-01 -2.0783834251660336e-04  1.7316069587776439e-01 5.0037318708495215e-01 1.1395453221495430e-03  1.2933344343220157e-01 5.0029625285187085e-01 1.8381851331554363e-03  8.5126117778505372e-02 5.0110786057874135e-01 0.0000000000000000e+00  4.1156581977999249e-02 5.0218984454067417e-01 0.0000000000000000e+00  4.2301329046061271e+00 3.2943155650475170e-01 3.7032827694599724e+00  4.2091516171034264e+00 2.5540475146656400e-01 3.6727234936389523e+00  4.1845166003919632e+00 1.8000875225850341e-01 3.6482185924673138e+00  4.1785203475542803e+00 1.2362883751169425e-01 3.6467511755608921e+00  4.1598182090169002e+00 5.7569736212434469e-02 3.6316502644311832e+00  4.1084870994151261e+00 0.0000000000000000e+00 3.5374550405891032e+00  4.0716649010955708e+00 0.0000000000000000e+00 3.4623224027751198e+00  4.0340654367899988e+00 0.0000000000000000e+00 3.3840430597990045e+00  3.9974089813288249e+00 0.0000000000000000e+00 3.3123450897644373e+00  3.9575428121095277e+00 0.0000000000000000e+00 3.2465268420897653e+00  3.9214518587484677e+00 0.0000000000000000e+00 3.1786003259289659e+00  3.8826733055217906e+00 0.0000000000000000e+00 3.1160287897613412e+00  3.8469247733473328e+00 0.0000000000000000e+00 3.0518657201872879e+00  3.8128014089071427e+00 0.0000000000000000e+00 2.9829706364101831e+00  3.7728784956482166e+00 0.0000000000000000e+00 2.9277062622841905e+00  3.7357436410850795e+00 0.0000000000000000e+00 2.8666767518057941e+00  3.6983702832352150e+00 0.0000000000000000e+00 2.8001654580415734e+00  3.6612445667127753e+00 0.0000000000000000e+00 2.7345562838543551e+00  3.6243613960133727e+00 0.0000000000000000e+00 2.6712547476096073e+00  3.5842250540136025e+00 0.0000000000000000e+00 2.6178479250086610e+00  3.5432144748219909e+00 0.0000000000000000e+00 2.5595469132532669e+00  3.5035292670794593e+00 0.0000000000000000e+00 2.4981785812712980e+00  3.4673221529877023e+00 0.0000000000000000e+00 2.4336214446130517e+00  3.4280918114012495e+00 0.0000000000000000e+00 2.3838791281858520e+00  3.3889701231896661e+00 0.0000000000000000e+00 2.3230501030521826e+00  3.3511562497053373e+00 0.0000000000000000e+00 2.2619436184204438e+00  3.3077436522939365e+00 0.0000000000000000e+00 2.2118907925786373e+00  3.2693079110862353e+00 0.0000000000000000e+00 2.1495914608889506e+00  3.2298202683195072e+00 0.0000000000000000e+00 2.0987740644785813e+00  3.1878632352399281e+00 0.0000000000000000e+00 2.0416489557667523e+00  3.1469731596701918e+00 0.0000000000000000e+00 1.9849143866588406e+00  3.1085497317070079e+00 0.0000000000000000e+00 1.9257228012067942e+00  3.0666374301805264e+00 0.0000000000000000e+00 1.8803406173757748e+00  3.0257358451485228e+00 0.0000000000000000e+00 1.8263700639285876e+00  2.9851934855554729e+00 0.0000000000000000e+00 1.7787190073227215e+00  2.9411553853337185e+00 0.0000000000000000e+00 1.7312665455935499e+00  2.8997186503197128e+00 0.0000000000000000e+00 1.6795462971140693e+00  2.8621949220320011e+00 0.0000000000000000e+00 1.6226171588278087e+00  2.8212255965366975e+00 0.0000000000000000e+00 1.5784290937680969e+00  2.7812499179542298e+00 0.0000000000000000e+00 1.5251051223193746e+00  2.7380024095482893e+00 0.0000000000000000e+00 1.4857266257225872e+00  2.6959385148835828e+00 0.0000000000000000e+00 1.4359321246996353e+00  2.6574689537332539e+00 0.0000000000000000e+00 1.3880875619796178e+00  2.6153382629914135e+00 0.0000000000000000e+00 1.3479034242117176e+00  2.5736741720108482e+00 0.0000000000000000e+00 1.2967838178686095e+00  2.5297284899275794e+00 0.0000000000000000e+00 1.2598214418480445e+00  2.4871785774951478e+00 0.0000000000000000e+00 1.2115325116420461e+00  2.4464537783434848e+00 0.0000000000000000e+00 1.1658424151407365e+00  2.4019769709620507e+00 0.0000000000000000e+00 1.1331970158035467e+00  2.3581287473110062e+00 0.0000000000000000e+00 1.0944214795052218e+00  2.3176357589143692e+00 0.0000000000000000e+00 1.0491402873694331e+00  2.2736872661164154e+00 0.0000000000000000e+00 1.0169036203543080e+00  2.2343762165249634e+00 0.0000000000000000e+00 9.7412138066350673e-01  2.1919815450837481e+00 0.0000000000000000e+00 9.4253461242123826e-01  2.1488737186758926e+00 0.0000000000000000e+00 9.0426842782051109e-01  2.1054354346348596e+00 0.0000000000000000e+00 8.7019181821323544e-01  2.0647459834797517e+00 0.0000000000000000e+00 8.3091206936142858e-01  2.0212267726348712e+00 0.0000000000000000e+00 8.0393433023717942e-01  1.9817819253200619e+00 0.0000000000000000e+00 7.6252456467986585e-01  1.9395859405212201e+00 0.0000000000000000e+00 7.3376638683213347e-01 