<?xml version="1.0"?>
<VTKFile type="UnstructuredGrid"  version="0.1"  >
<UnstructuredGrid>
<Piece  NumberOfPoints="3069" NumberOfCells="12882">
<Points>
<DataArray  type="Float64"  NumberOfComponents="3"  format="ascii">0 0 0  0 0 4  0 5.65685415 0  50 0 4  50 5.65685415 0  50 0 0  0 0 1  0 0 2  0 0 3  0 1.04967844 3.90746784  0 2.0669806 3.632725  0 3.02052855 3.18424606  0 3.88091111 2.5758636  0 4.62159061 1.82634306  0 5.21972132 0.958802283  0 4.71404505 0  0 3.77123618 0  0 2.82842708 0  0 1.88561809 0  0 0.942809045 0  0.5 0 4  1 0 4  1.5 0 4  2 0 4  2.5 0 4  3 0 4  3.5 0 4  4 0 4  4.5 0 4  5 0 4  5.5 0 4  6 0 4  6.5 0 4  7 0 4  7.5 0 4  8 0 4  8.5 0 4  9 0 4  9.5 0 4  10 0 4  10.5 0 4  11 0 4  11.5 0 4  12 0 4  12.5 0 4  13 0 4  13.5 0 4  14 0 4  14.5 0 4  15 0 4  15.5 0 4  16 0 4  16.5 0 4  17 0 4  17.5 0 4  18 0 4  18.5 0 4  19 0 4  19.5 0 4  20 0 4  20.5 0 4  21 0 4  21.5 0 4  22 0 4  22.5 0 4  23 0 4  23.5 0 4  24 0 4  24.5 0 4  25 0 4  25.5 0 4  26 0 4  26.5 0 4  27 0 4  27.5 0 4  28 0 4  28.5 0 4  29 0 4  29.5 0 4  30 0 4  30.5 0 4  31 0 4  31.5 0 4  32 0 4  32.5 0 4  33 0 4  33.5 0 4  34 0 4  34.5 0 4  35 0 4  35.5 0 4  36 0 4  36.5 0 4  37 0 4  37.5 0 4  38 0 4  38.5 0 4  39 0 4  39.5 0 4  40 0 4  40.5 0 4  41 0 4  41.5 0 4  42 0 4  42.5 0 4  43 0 4  43.5 0 4  44 0 4  44.5 0 4  45 0 4  45.5 0 4  46 0 4  46.5 0 4  47 0 4  47.5 0 4  48 0 4  48.5 0 4  49 0 4  49.5 0 4  50 1.04967844 3.90746784  50 2.0669806 3.632725  50 3.02052855 3.18424606  50 3.88091111 2.5758636  50 4.62159061 1.82634306  50 5.21972132 0.958802283  49.5 5.65685415 0  49 5.65685415 0  48.5 5.65685415 0  48 5.65685415 0  47.5 5.65685415 0  47 5.65685415 0  46.5 5.65685415 0  46 5.65685415 0  45.5 5.65685415 0  45 5.65685415 0  44.5 5.65685415 0  44 5.65685415 0  43.5 5.65685415 0  43 5.65685415 0  42.5 5.65685415 0  42 5.65685415 0  41.5 5.65685415 0  41 5.65685415 0  40.5 5.65685415 0  40 5.65685415 0  39.5 5.65685415 0  39 5.65685415 0  38.5 5.65685415 0  38 5.65685415 0  37.5 5.65685415 0  37 5.65685415 0  36.5 5.65685415 0  36 5.65685415 0  35.5 5.65685415 0  35 5.65685415 0  34.5 5.65685415 0  34 5.65685415 0  33.5 5.65685415 0  33 5.65685415 0  32.5 5.65685415 0  32 5.65685415 0  31.5 5.65685415 0  31 5.65685415 0  30.5 5.65685415 0  30 5.65685415 0  29.5 5.65685415 0  29 5.65685415 0  28.5 5.65685415 0  28 5.65685415 0  27.5 5.65685415 0  27 5.65685415 0  26.5 5.65685415 0  26 5.65685415 0  25.5 5.65685415 0  25 5.65685415 0  24.5 5.65685415 0  24 5.65685415 0  23.5 5.65685415 0  23 5.65685415 0  22.5 5.65685415 0  22 5.65685415 0  21.5 5.65685415 0  21 5.65685415 0  20.5 5.65685415 0  20 5.65685415 0  19.5 5.65685415 0  19 5.65685415 0  18.5 5.65685415 0  18 5.65685415 0  17.5 5.65685415 0  17 5.65685415 0  16.5 5.65685415 0  16 5.65685415 0  15.5 5.65685415 0  15 5.65685415 0  14.5 5.65685415 0  14 5.65685415 0  13.5 5.65685415 0  13 5.65685415 0  12.5 5.65685415 0  12 5.65685415 0  11.5 5.65685415 0  11 5.65685415 0  10.5 5.65685415 0  10 5.65685415 0  9.5 5.65685415 0  9 5.65685415 0  8.5 5.65685415 0  8 5.65685415 0  7.5 5.65685415 0  7 5.65685415 0  6.5 5.65685415 0  6 5.65685415 0  5.5 5.65685415 0  5 5.65685415 0  4.5 5.65685415 0  4 5.65685415 0  3.5 5.65685415 0  3 5.65685415 0  2.5 5.65685415 0  2 5.65685415 0  1.5 5.65685415 0  1 5.65685415 0  0.5 5.65685415 0  50 4.71404505 0  50 3.77123618 0  50 2.82842708 0  50 1.88561809 0  50 0.942809045 0  49.5 0 0  49 0 0  48.5 0 0  48 0 0  47.5 0 0  47 0 0  46.5 0 0  46 0 0  45.5 0 0  45 0 0  44.5 0 0  44 0 0  43.5 0 0  43 0 0  42.5 0 0  42 0 0  41.5 0 0  41 0 0  40.5 0 0  40 0 0  39.5 0 0  39 0 0  38.5 0 0  38 0 0  37.5 0 0  37 0 0  36.5 0 0  36 0 0  35.5 0 0  35 0 0  34.5 0 0  34 0 0  33.5 0 0  33 0 0  32.5 0 0  32 0 0  31.5 0 0  31 0 0  30.5 0 0  30 0 0  29.5 0 0  29 0 0  28.5 0 0  28 0 0  27.5 0 0  27 0 0  26.5 0 0  26 0 0  25.5 0 0  25 0 0  24.5 0 0  24 0 0  23.5 0 0  23 0 0  22.5 0 0  22 0 0  21.5 0 0  21 0 0  20.5 0 0  20 0 0  19.5 0 0  19 0 0  18.5 0 0  18 0 0  17.5 0 0  17 0 0  16.5 0 0  16 0 0  15.5 0 0  15 0 0  14.5 0 0  14 0 0  13.5 0 0  13 0 0  12.5 0 0  12 0 0  11.5 0 0  11 0 0  10.5 0 0  10 0 0  9.5 0 0  9 0 0  8.5 0 0  8 0 0  7.5 0 0  7 0 0  6.5 0 0  6 0 0  5.5 0 0  5 0 0  4.5 0 0  4 0 0  3.5 0 0  3 0 0  2.5 0 0  2 0 0  1.5 0 0  1 0 0  0.5 0 0  50 0 1  50 0 2  50 0 3  0 2.33524275 0.893602192  0 2.87561393 1.93323028  0 4.2367816 0.876864135  0 2.00050235 2.65534091  0 0.981494486 2.34323239  0 3.78543234 1.61830366  0 3.30545568 0.887000024  0 0.812916458 1.58408713  0 1.71948838 1.71268857  0 1.28267908 0.8650629520000001  0 1.21973121 3.10775328  0.5 5.21972132 0.958802223  0.5 4.62159061 1.82634306  0.5 3.88091111 2.5758636  0.5 3.02052855 3.18424606  0.5 2.0669806 3.632725  0.5 1.04967844 3.90746784  1 5.21972132 0.958802223  1 4.62159061 1.82634306  1 3.88091111 2.5758636  1 3.02052855 3.18424606  1 2.0669806 3.632725  1 1.04967844 3.90746784  1.5 5.21972132 0.958802223  1.5 4.62159061 1.82634306  1.5 3.88091111 2.5758636  1.5 3.02052855 3.18424606  1.5 2.0669806 3.632725  1.5 1.04967844 3.90746784  2 5.21972132 0.958802223  2 4.62159061 1.82634306  2 3.88091111 2.5758636  2 3.02052855 3.18424606  2 2.0669806 3.632725  2 1.04967844 3.90746784  2.5 5.21972132 0.958802223  2.5 4.62159061 1.82634306  2.5 3.88091111 2.5758636  2.5 3.02052855 3.18424606  2.5 2.0669806 3.632725  2.5 1.04967844 3.90746784  3 5.21972132 0.958802223  3 4.62159061 1.82634306  3 3.88091111 2.5758636  3 3.02052855 3.18424606  3 2.0669806 3.632725  3 1.04967844 3.90746784  3.5 5.21972132 0.958802223  3.5 4.62159061 1.82634306  3.5 3.88091111 2.5758636  3.5 3.02052855 3.18424606  3.5 2.0669806 3.632725  3.5 1.04967844 3.90746784  4 5.21972132 0.958802223  4 4.62159061 1.82634306  4 3.88091111 2.5758636  4 3.02052855 3.18424606  4 2.0669806 3.632725  4 1.04967844 3.90746784  4.5 5.21972132 0.958802223  4.5 4.62159061 1.82634306  4.5 3.88091111 2.5758636  4.5 3.02052855 3.18424606  4.5 2.0669806 3.632725  4.5 1.04967844 3.90746784  5 5.21972132 0.958802223  5 4.62159061 1.82634306  5 3.88091111 2.5758636  5 3.02052855 3.18424606  5 2.0669806 3.632725  5 1.04967844 3.90746784  5.5 5.21972132 0.958802223  5.5 4.62159061 1.82634306  5.5 3.88091111 2.5758636  5.5 3.02052855 3.18424606  5.5 2.0669806 3.632725  5.5 1.04967844 3.90746784  6 5.21972132 0.958802223  6 4.62159061 1.82634306  6 3.88091111 2.5758636  6 3.02052855 3.18424606  6 2.0669806 3.632725  6 1.04967844 3.90746784  6.5 5.21972132 0.958802223  6.5 4.62159061 1.82634306  6.5 3.88091111 2.5758636  6.5 3.02052855 3.18424606  6.5 2.0669806 3.632725  6.5 1.04967844 3.90746784  7 5.21972132 0.958802223  7 4.62159061 1.82634306  7 3.88091111 2.5758636  7 3.02052855 3.18424606  7 2.0669806 3.632725  7 1.04967844 3.90746784  7.5 5.21972132 0.958802223  7.5 4.62159061 1.82634306  7.5 3.88091111 2.5758636  7.5 3.02052855 3.18424606  7.5 2.0669806 3.632725  7.5 1.04967844 3.90746784  8 5.21972132 0.958802223  8 4.62159061 1.82634306  8 3.88091111 2.5758636  8 3.02052855 3.18424606  8 2.0669806 3.632725  8 1.04967844 3.90746784  8.5 5.21972132 0.958802223  8.5 4.62159061 1.82634306  8.5 3.88091111 2.5758636  8.5 3.02052855 3.18424606  8.5 2.0669806 3.632725  8.5 1.04967844 3.90746784  9 5.21972132 0.958802223  9 4.62159061 1.82634306  9 3.88091111 2.5758636  9 3.02052855 3.18424606  9 2.0669806 3.632725  9 1.04967844 3.90746784  9.5 5.21972132 0.958802223  9.5 4.62159061 1.82634306  9.5 3.88091111 2.5758636  9.5 3.02052855 3.18424606  9.5 2.0669806 3.632725  9.5 1.04967844 3.90746784  10 5.21972132 0.958802223  10 4.62159061 1.82634306  10 3.88091111 2.5758636  10 3.02052855 3.18424606  10 2.0669806 3.632725  10 1.04967844 3.90746784  10.5 5.21972132 0.958802223  10.5 4.62159061 1.82634306  10.5 3.88091111 2.5758636  10.5 3.02052855 3.18424606  10.5 2.0669806 3.632725  10.5 1.04967844 3.90746784  11 5.21972132 0.958802223  11 4.62159061 1.82634306  11 3.88091111 2.5758636  11 3.02052855 3.18424606  11 2.0669806 3.632725  11 1.04967844 3.90746784  11.5 5.21972132 0.958802223  11.5 4.62159061 1.82634306  11.5 3.88091111 2.5758636  11.5 3.02052855 3.18424606  11.5 2.0669806 3.632725  11.5 1.04967844 3.90746784  12 5.21972132 0.958802223  12 4.62159061 1.82634306  12 3.88091111 2.5758636  12 3.02052855 3.18424606  12 2.0669806 3.632725  12 1.04967844 3.90746784  12.5 5.21972132 0.958802223  12.5 4.62159061 1.82634306  12.5 3.88091111 2.5758636  12.5 3.02052855 3.18424606  12.5 2.0669806 3.632725  12.5 1.04967844 3.90746784  13 5.21972132 0.958802223  13 4.62159061 1.82634306  13 3.88091111 2.5758636  13 3.02052855 3.18424606  13 2.0669806 3.632725  13 1.04967844 3.90746784  13.5 5.21972132 0.958802223  13.5 4.62159061 1.82634306  13.5 3.88091111 2.5758636  13.5 3.02052855 3.18424606  13.5 2.0669806 3.632725  13.5 1.04967844 3.90746784  14 5.21972132 0.958802223  14 4.62159061 1.82634306  14 3.88091111 2.5758636  14 3.02052855 3.18424606  14 2.0669806 3.632725  14 1.04967844 3.90746784  14.5 5.21972132 0.958802223  14.5 4.62159061 1.82634306  14.5 3.88091111 2.5758636  14.5 3.02052855 3.18424606  14.5 2.0669806 3.632725  14.5 1.04967844 3.90746784  15 5.21972132 0.958802223  15 4.62159061 1.82634306  15 3.88091111 2.5758636  15 3.02052855 3.18424606  15 2.0669806 3.632725  15 1.04967844 3.90746784  15.5 5.21972132 0.958802223  15.5 4.62159061 1.82634306  15.5 3.88091111 2.5758636  15.5 3.02052855 3.18424606  15.5 2.0669806 3.632725  15.5 1.04967844 3.90746784  16 5.21972132 0.958802223  16 4.62159061 1.82634306  16 3.88091111 2.5758636  16 3.02052855 3.18424606  16 2.0669806 3.632725  16 1.04967844 3.90746784  16.5 5.21972132 0.958802223  16.5 4.62159061 1.82634306  16.5 3.88091111 2.5758636  16.5 3.02052855 3.18424606  16.5 2.0669806 3.632725  16.5 1.04967844 3.90746784  17 5.21972132 0.958802223  17 4.62159061 1.82634306  17 3.88091111 2.5758636  17 3.02052855 3.18424606  17 2.0669806 3.632725  17 1.04967844 3.90746784  17.5 5.21972132 0.958802223  17.5 4.62159061 1.82634306  17.5 3.88091111 2.5758636  17.5 3.02052855 3.18424606  17.
[...]
<PointData  Vectors="f_261141-0"> 
<DataArray  type="Float64"  Name="f_261141-0"  NumberOfComponents="3" format="ascii">0.0000000000000000e+00 0.0000000000000000e+00 0.0000000000000000e+00  0.0000000000000000e+00 0.0000000000000000e+00 3.1161730356996992e-01  0.0000000000000000e+00 5.5752147402199759e-01 0.0000000000000000e+00  3.9700071871093274e+00 0.0000000000000000e+00 3.8381098448870379e+00  4.7312526937957218e+00 4.6833144983421410e-01 3.7884227756982876e+00  4.6217343732020657e+00 0.0000000000000000e+00 3.6693766693968644e+00  0.0000000000000000e+00 0.0000000000000000e+00 1.0502613232116349e-01  0.0000000000000000e+00 0.0000000000000000e+00 1.6833568688784173e-01  0.0000000000000000e+00 0.0000000000000000e+00 2.1395009278816865e-01  0.0000000000000000e+00 5.8145327687485281e-02 3.1615711173185973e-01  0.0000000000000000e+00 1.5093139608788683e-01 3.3172052092352911e-01  0.0000000000000000e+00 2.4381651263659268e-01 3.0332311683119595e-01  0.0000000000000000e+00 3.3324909647463102e-01 2.5650703700504729e-01  0.0000000000000000e+00 4.2644905264142541e-01 1.9623826116392531e-01  0.0000000000000000e+00 5.0721560359418405e-01 1.0552292459020142e-01  0.0000000000000000e+00 4.5449833417538027e-01 0.0000000000000000e+00  0.0000000000000000e+00 3.4770647921522607e-01 0.0000000000000000e+00  0.0000000000000000e+00 2.4521110900348755e-01 0.0000000000000000e+00  0.0000000000000000e+00 1.5470781801190020e-01 0.0000000000000000e+00  0.0000000000000000e+00 7.4675983620677455e-02 0.0000000000000000e+00  4.3231048189433761e-02 0.0000000000000000e+00 3.1265960531573250e-01  8.3369417453253783e-02 0.0000000000000000e+00 3.1164569088927430e-01  1.2515278802094135e-01 0.0000000000000000e+00 3.1230847649052601e-01  1.6726118308028290e-01 0.0000000000000000e+00 3.1406153617874821e-01  2.1175891595815016e-01 0.0000000000000000e+00 3.1459473427712337e-01  2.5232489650348966e-01 0.0000000000000000e+00 3.2049434334612559e-01  2.9640670232225597e-01 0.0000000000000000e+00 3.2610866155123414e-01  3.3736409038588372e-01 0.0000000000000000e+00 3.3356664209764253e-01  3.7948319216561127e-01 0.0000000000000000e+00 3.4449485699247118e-01  4.2183163788775641e-01 0.0000000000000000e+00 3.5559221655758910e-01  4.6546066853399987e-01 0.0000000000000000e+00 3.6544352462665597e-01  5.0896871575019376e-01 0.0000000000000000e+00 3.6547312319125674e-01  5.5106021031777230e-01 0.0000000000000000e+00 3.7439079109242274e-01  5.9145032316221136e-01 0.0000000000000000e+00 3.8738340341475141e-01  6.3735736712289692e-01 0.0000000000000000e+00 3.9594896008161951e-01  6.7673741642244012e-01 0.0000000000000000e+00 4.0735871702651810e-01  7.1841079535620445e-01 0.0000000000000000e+00 4.1908600894004944e-01  7.5987022240392832e-01 0.0000000000000000e+00 4.3492779083478789e-01  8.0387994561951648e-01 0.0000000000000000e+00 4.4593210410558648e-01  8.4727979667324704e-01 0.0000000000000000e+00 4.5666781205433071e-01  8.8979397519193848e-01 0.0000000000000000e+00 4.6836565260322904e-01  9.3436471888422756e-01 0.0000000000000000e+00 4.8639900104469713e-01  9.7679078515304252e-01 0.0000000000000000e+00 5.0008540923928657e-01  1.0186843349876016e+00 0.0000000000000000e+00 5.1620958349880219e-01  1.0615877562994034e+00 0.0000000000000000e+00 5.3261519382040434e-01  1.1020798238786151e+00 0.0000000000000000e+00 5.5211859185515977e-01  1.1426882131993046e+00 0.0000000000000000e+00 5.7464019743373584e-01  1.1865169603500840e+00 0.0000000000000000e+00 5.9010386640920853e-01  1.2267581526033420e+00 0.0000000000000000e+00 6.1036422576800808e-01  1.2675901001188727e+00 0.0000000000000000e+00 6.3606393675275996e-01  1.3150735269888822e+00 0.0000000000000000e+00 6.4696945154216845e-01  1.3596131025390166e+00 0.0000000000000000e+00 6.7278917001634642e-01  1.3997215345276233e+00 0.0000000000000000e+00 7.0143883334329005e-01  1.4421961332212598e+00 0.0000000000000000e+00 7.2429559490417761e-01  1.4827611831845553e+00 0.0000000000000000e+00 7.5156360127266519e-01  1.5248051289733586e+00 0.0000000000000000e+00 7.7474665892780559e-01  1.5640554391472492e+00 0.0000000000000000e+00 8.0279234808652356e-01  1.6061457923564526e+00 0.0000000000000000e+00 8.2507432986479845e-01  1.6472326440980385e+00 0.0000000000000000e+00 8.5537115090419502e-01  1.6888531830703808e+00 0.0000000000000000e+00 8.8126274368811019e-01  1.7328761873305769e+00 0.0000000000000000e+00 9.0858003950778077e-01  1.7724711583748014e+00 0.0000000000000000e+00 9.3563897158846532e-01  1.8146815877478557e+00 0.0000000000000000e+00 9.6608686202220073e-01  1.8539809214936835e+00 0.0000000000000000e+00 1.0025861414222075e+00  1.8978893596813380e+00 0.0000000000000000e+00 1.0318042859303227e+00  1.9404910755296580e+00 0.0000000000000000e+00 1.0649815908735731e+00  1.9820274472540214e+00 0.0000000000000000e+00 1.0946935749708879e+00  2.0216876628861185e+00 0.0000000000000000e+00 1.1287619391218975e+00  2.0637691473004467e+00 0.0000000000000000e+00 1.1638264683510555e+00  2.1036120342985947e+00 0.0000000000000000e+00 1.2009332370250962e+00  2.1454852848611976e+00 0.0000000000000000e+00 1.2400645769050891e+00  2.1872024377737644e+00 0.0000000000000000e+00 1.2744919988011407e+00  2.2264259351411022e+00 0.0000000000000000e+00 1.3155399299251238e+00  2.2681414466948815e+00 0.0000000000000000e+00 1.3542544683526498e+00  2.3088765869165826e+00 0.0000000000000000e+00 1.3920777169140772e+00  2.3467144459668403e+00 0.0000000000000000e+00 1.4304068846445059e+00  2.3900846209292741e+00 0.0000000000000000e+00 1.4723496390316551e+00  2.4314513370617798e+00 0.0000000000000000e+00 1.5157609394342908e+00  2.4725209073879117e+00 0.0000000000000000e+00 1.5573514612218082e+00  2.5101040959418692e+00 0.0000000000000000e+00 1.6037072693169325e+00  2.5516557263681463e+00 0.0000000000000000e+00 1.6495290910245133e+00  2.5935475485945556e+00 0.0000000000000000e+00 1.6921440827730023e+00  2.6335655913068150e+00 0.0000000000000000e+00 1.7361308980886438e+00  2.6756831746619008e+00 0.0000000000000000e+00 1.7835339784484818e+00  2.7168822143007483e+00 0.0000000000000000e+00 1.8273461234714092e+00  2.7552403076471004e+00 0.0000000000000000e+00 1.8740752385805199e+00  2.7966192079070380e+00 0.0000000000000000e+00 1.9207547287163789e+00  2.8381861550032546e+00 0.0000000000000000e+00 1.9703190998229516e+00  2.8761087755785035e+00 0.0000000000000000e+00 2.0200639316796267e+00  2.9165751501960480e+00 0.0000000000000000e+00 2.0732342327532738e+00  2.9573010530908341e+00 0.0000000000000000e+00 2.1222585509985676e+00  2.9972696098861111e+00 0.0000000000000000e+00 2.1752982529738496e+00  3.0336690914878051e+00 0.0000000000000000e+00 2.2329196847276349e+00  3.0737325252632171e+00 0.0000000000000000e+00 2.2868950590850678e+00  3.1145417517369491e+00 0.0000000000000000e+00 2.3388398830413903e+00  3.1551005979322069e+00 0.0000000000000000e+00 2.3953454768068934e+00  3.1931022693368352e+00 0.0000000000000000e+00 2.4511839835196492e+00  3.2331953046080506e+00 0.0000000000000000e+00 2.5065609437942395e+00  3.2703080048200079e+00 0.0000000000000000e+00 2.5672794003671355e+00  3.3100582314499745e+00 0.0000000000000000e+00 2.6262773177749010e+00  3.3504013232483629e+00 0.0000000000000000e+00 2.6846675240314433e+00  3.3869069837225640e+00 0.0000000000000000e+00 2.7431256443319563e+00  3.4258961727100656e+00 0.0000000000000000e+00 2.8061789869717204e+00  3.4668845301577980e+00 0.0000000000000000e+00 2.8647833466565031e+00  3.5045473910571738e+00 0.0000000000000000e+00 2.9234597612423721e+00  3.5434038512588835e+00 0.0000000000000000e+00 2.9862419904269908e+00  3.5828708316899647e+00 0.0000000000000000e+00 3.0447321696824168e+00  3.6198377660019383e+00 0.0000000000000000e+00 3.1085268634110683e+00  3.6593149839056651e+00 0.0000000000000000e+00 3.1733824331405223e+00  3.6975306300565425e+00 0.0000000000000000e+00 3.2371536167579067e+00  3.7337205324821090e+00 0.0000000000000000e+00 3.3015188936465947e+00  3.7716527245050155e+00 0.0000000000000000e+00 3.3644365654280888e+00  3.8089905579475314e+00 0.0000000000000000e+00 3.4243098410983270e+00  3.8465469963771692e+00 0.0000000000000000e+00 3.4788480569993703e+00  3.8802416362103211e+00 0.0000000000000000e+00 3.5305887154463753e+00  3.9065708857761918e+00 0.0000000000000000e+00 3.5823071320982094e+00  3.9278605292746720e+00 0.0000000000000000e+00 3.6374101292542860e+00  3.9451300322730400e+00 0.0000000000000000e+00 3.6974801884935320e+00  3.9569992770370304e+00 0.0000000000000000e+00 3.7613656983163279e+00  4.0034136267056297e+00 2.6643032847361137e-02 3.8343982559197225e+00  4.0612623684547042e+00 6.6046341209284515e-02 3.8477836386261797e+00  4.1417643830904174e+00 1.1691808536814109e-01 3.8665574470919557e+00  4.2506723174457139e+00 1.8448685124944364e-01 3.8771862500910417e+00  4.3923581182036182e+00 2.6839887571246385e-01 3.8824830557688657e+00  4.5686312129262472e+00 3.6930980103823291e-01 3.8532101542314181e+00  4.6889635264013414e+00 4.8369001999621969e-01 3.7075446879263332e+00  4.6444034288491318e+00 4.9949718175359137e-01 3.6232788152533049e+00  4.6001901035713892e+00 5.1402251436599267e-01 3.5373570955994724e+00  4.5547743199546220e+00 5.2638778789663820e-01 3.4523083288177272e+00  4.5068305463681551e+00 5.3693208344493148e-01 3.3693377181484023e+00  4.4572766095577219e+00 5.4487259819393852e-01 3.2878051298782851e+00  4.4065111647055222e+00 5.4954692908859937e-01 3.2085133548771347e+00  4.3549605000751104e+00 5.5118100664783365e-01 3.1314404179461319e+00  4.3053015683778977e+00 5.5255037417462738e-01 3.0536795722949055e+00  4.2545983899353672e+00 5.5216303626758345e-01 2.9801159484939368e+00  4.2057448804224062e+00 5.5371649904783371e-01 2.9061447956200781e+00  4.1573772726017717e+00 5.5465013705354571e-01 2.8347889917429043e+00  4.1094794915136648e+00 5.5486152630757601e-01 2.7667820736610027e+00  4.0618670443182481e+00 5.5516398070338668e-01 2.6998524507227120e+00  4.0161457716767819e+00 5.5425399544255671e-01 2.6325176030891555e+00  3.9696208921880234e+00 5.5289676732911164e-01 2.5661861450897274e+00  3.9233182970078708e+00 5.5175064279432318e-01 2.5035545865356510e+00  3.8771934151847987e+00 5.5115608890457601e-01 2.4427680647538708e+00  3.8313467774447174e+00 5.5275243388806716e-01 2.3803197415554833e+00  3.7854823186557449e+00 5.5148335409540783e-01 2.3180949016933159e+00  3.7396206019244600e+00 5.4837875930536994e-01 2.2563952104022764e+00  3.6926879587173245e+00 5.4840819623092085e-01 2.1944329898310873e+00  3.6466433067030346e+00 5.4635382965079260e-01 2.1343726103372491e+00  3.6001304338979998e+00 5.4663069836461109e-01 2.0756607188805627e+00  3.5546760085826499e+00 5.4609621931705743e-01 2.0169816921320405e+00  3.5083234937469130e+00 5.4160445535243684e-01 1.9625249742762285e+00  3.4618506180544766e+00 5.4259167573352096e-01 1.9083807338961856e+00  3.4161854400593752e+00 5.4489990986016423e-01 1.8528367124447724e+00  3.3705954327939192e+00 5.4284312685063818e-01 1.8018412996404694e+00  3.3257489947792189e+00 5.4501366527510642e-01 1.7488889762956579e+00  3.2794697769313079e+00 5.4375190565451237e-01 1.6985450906511330e+00  3.2334121379436951e+00 5.4085521468927311e-01 1.6490965858295386e+00  3.1869019253077813e+00 5.4160861532446392e-01 1.6002677428659287e+00  3.1409710721683326e+00 5.4309235785193444e-01 1.5518997156581504e+00  3.0948303688587662e+00 5.4282176341456490e-01 1.5046998342258560e+00  3.0491977473091345e+00 5.4463351525567583e-01 1.4567721852786826e+00  3.0035335646278112e+00 5.4538926845950220e-01 1.4089874498526913e+00  2.9566682401057225e+00 5.4525508446751980e-01 1.3633089526213362e+00  2.9097352986314657e+00 5.4406594655573148e-01 1.3192803246449201e+00  2.8634126858091866e+00 5.4664820024171368e-01 1.2750958834874744e+00  2.8167895132350709e+00 5.4713470927031749e-01 1.2308392005949758e+00  2.7696410754512573e+00 5.4544091059696553e-01 1.1892678215270145e+00  2.7212032990731458e+00 5.4517090018574821e-01 1.1470396569967554e+00  2.6748988508465419e+00 5.4474133575500461e-01 1.1018645805178318e+00  2.6286873446732546e+00 5.4308703241767475e-01 1.0601991441048846e+00  2.5820148309965192e+00 5.4442450161749145e-01 1.0206605395223591e+00  2.5350661967876480e+00 5.4611235017324322e-01 9.8114387068198194e-01  2.4878832865950429e+00 5.4458711452597452e-01 9.4452144798251947e-01  2.4404534419650807e+00 5.4408792322888355e-01 9.0592655465309480e-01  2.3931565309194305e+00 5.4290975452994306e-01 8.6745904799078000e-01  2.3452208801421279e+00 5.4211613403498760e-01 8.3264941673424964e-01  2.2980733788354102e+00 5.4402650457944790e-01 7.9612292680444330e-01  2.2512989992169135e+00 5.4342515985935635e-01 7.6360879771811141e-01  2.2042271680442123e+00 5.4513667957581935e-01 7.2609915050062113e-01  2.1572219434895836e+00 5.4080216234475054e-01 6.9211337267165240e-01  2.1089691564285955e+00 5.4074559195263738e-01 6.5986808952201637e-01  2.0609195056918099e+00 5.4301180635942736e-01 6.2847062784103824e-01  2.0139989769334279e+00 5.4305719104320427e-01 5.9700955688115043e-01  1.9661435487653334e+00 5.4252631517726846e-01 5.6832469266037533e-01  1.9186046564741797e+00 5.4340730621923206e-01 5.3843354073247518e-01  1.8707512106154696e+00 5.4171455706170613e-01 5.1176521102816375e-01  1.8231493902472302e+00 5.4298399779662609e-01 4.8476540063882900e-01  1.7748928805705164e+00 5.4477531567859205e-01 4.6027348150212699e-01  1.7282562326022493e+00 5.4443517562656929e-01 4.3481991259412139e-01  1.6805803791738549e+00 5.4539966375816662e-01 4.1153189780552446e-01  1.6320621598220260e+00 5.4596427719740781e-01 3.8938373113997105e-01  1.5838507436743152e+00 5.4648811731026625e-01 3.6641128579684734e-01  1.5370596145226765e+00 5.4826974552711738e-01 3.4242852504179333e-01  1.4893221017998401e+00 5.4662641861835881e-01 3.2116115115433536e-01  1.4413727586733949e+00 5.4701819625893733e-01 2.9797055097959935e-01  1.3932135452508596e+00 5.4509522380700415e-01 2.7698807664308767e-01  1.3454372139558644e+00 5.4662225031028033e-01 2.5479328232288384e-01  1.2980948826674892e+00 5.4530920425458551e-01 2.3447329263593547e-01  1.2491280551753587e+00 5.4513016348673382e-01 2.1496921924394236e-01  1.2010911494010263e+00 5.4394279053599059e-01 1.9564647357755036e-01  1.1520236014417504e+00 5.4555347529092735e-01 1.7800305901863148e-01  1.1041979896870879e+00 5.4620584143343553e-01 1.6207299084645976e-01  1.0568803856267452e+00 5.4627298213499897e-01 1.4676583705351154e-01  1.0091628552211631e+00 5.4716787665501720e-01 1.3214379469462748e-01  9.6094908481160279e-01 5.4589193378248535e-01 1.1856898025692583e-01  9.1272689119269290e-01 5.4474987125855656e-01 1.0426473444637302e-01  8.6484634276813643e-01 5.4467320515394146e-01 9.2183704478422501e-02  8.1713988281119443e-01 5.4526907106088851e-01 8.0234676106603370e-02  7.6935659133396184e-01 5.4777521065833368e-01 6.7441909662950272e-02  7.2192629929535834e-01 5.4587314399585629e-01 5.5797072109680303e-02  6.7380030720003214e-01 5.4647689076644490e-01 4.5003566837898613e-02  6.2445804467700161e-01 5.4459676568305770e-01 3.6695234680943406e-02  5.7647553904219506e-01 5.4433420420162826e-01 2.7120246926459063e-02  5.2833743868504424e-01 5.4384289060780100e-01 2.0856322909119200e-02  4.8003098259089455e-01 5.4505207685791446e-01 1.4728833671440122e-02  4.3287073089492462e-01 5.4763667385199355e-01 8.6887212369079533e-03  3.8501094987647722e-01 5.4853513774033424e-01 4.8267201217835325e-03  3.3735126732634424e-01 5.4833724104856307e-01 1.7544252593664359e-03  2.8847601368723980e-01 5.5144961631262279e-01 1.0598265477662456e-03  2.4003383435178230e-01 5.5427655735729897e-01 -4.0111242430361250e-04  1.9222855398696348e-01 5.5390957266683727e-01 9.2504098761729255e-04  1.4359561395040793e-01 5.5330234483817287e-01 1.8980820757384528e-03  9.4564026275458749e-02 5.5411855436767476e-01 0.0000000000000000e+00  4.5755050630985235e-02 5.5490845280506051e-01 0.0000000000000000e+00  4.7073587911066284e+00 3.6898593596572077e-01 3.7511628019141892e+00  4.6853942062762570e+00 2.8683800700537021e-01 3.7196850613443684e+00  4.6597331125278654e+00 2.0307125018047084e-01 3.6947569124262825e+00  4.6521994329928997e+00 1.3857706972180459e-01 3.6922520433098365e+00  4.6327910603549514e+00 6.5083470865214918e-02 3.6767998331985048e+00  4.5767426873353738e+00 0.0000000000000000e+00 3.5814321569903780e+00  4.5357863448511972e+00 0.0000000000000000e+00 3.5055822815544841e+00  4.4941670113514638e+00 0.0000000000000000e+00 3.4263762607685986e+00  4.4531041871842714e+00 0.0000000000000000e+00 3.3536423536322539e+00  4.4092012194925969e+00 0.0000000000000000e+00 3.2864588320923160e+00  4.3684162534073803e+00 0.0000000000000000e+00 3.2180693818381942e+00  4.3252015510077193e+00 0.0000000000000000e+00 3.1543405669713347e+00  4.2850963385991356e+00 0.0000000000000000e+00 3.0891837120091035e+00  4.2460621034231405e+00 0.0000000000000000e+00 3.0199328087425492e+00  4.2015361604278301e+00 0.0000000000000000e+00 2.9637500012940059e+00  4.1600123149554440e+00 0.0000000000000000e+00 2.9016527353278900e+00  4.1179889851681537e+00 0.0000000000000000e+00 2.8346819947822048e+00  4.0762150064096447e+00 0.0000000000000000e+00 2.7684770212995891e+00  4.0341962784109295e+00 0.0000000000000000e+00 2.7052169127484396e+00  3.9895532242964085e+00 0.0000000000000000e+00 2.6503568219375326e+00  3.9443263774822079e+00 0.0000000000000000e+00 2.5913133665694406e+00  3.9003059804004869e+00 0.0000000000000000e+00 2.5290458279315957e+00  3.8590029966995774e+00 0.0000000000000000e+00 2.4644893520581679e+00  3.8149156958232000e+00 0.0000000000000000e+00 2.4135192905265632e+00  3.7713933410332223e+00 0.0000000000000000e+00 2.3525419217607930e+00  3.7284068607035361e+00 0.0000000000000000e+00 2.2913747112473208e+00  3.6807206335885052e+00 0.0000000000000000e+00 2.2397730386617232e+00  3.6372192833471924e+00 0.0000000000000000e+00 2.1773933250222854e+00  3.5927546335349079e+00 0.0000000000000000e+00 2.1255829920615272e+00  3.5464925269600762e+00 0.0000000000000000e+00 2.0679354928536142e+00  3.5011846049995832e+00 0.0000000000000000e+00 2.0104402149597398e+00  3.4576997365592823e+00 0.0000000000000000e+00 1.9514921436324282e+00  3.4109532938360383e+00 0.0000000000000000e+00 1.9049924682240162e+00  3.3650520643737387e+00 0.0000000000000000e+00 1.8506921501170206e+00  3.3195300642022354e+00 0.0000000000000000e+00 1.8020768971506604e+00  3.2710771328939940e+00 0.0000000000000000e+00 1.7539021731489768e+00  3.2253157046540761e+00 0.0000000000000000e+00 1.7014957907818178e+00  3.1827384496780753e+00 0.0000000000000000e+00 1.6444380010763968e+00  3.1369801372304513e+00 0.0000000000000000e+00 1.5991557104714758e+00  3.0920083947517845e+00 0.0000000000000000e+00 1.5459613524967473e+00  3.0441966445008104e+00 0.0000000000000000e+00 1.5052426268296382e+00  2.9975691612786441e+00 0.0000000000000000e+00 1.4553290811264117e+00  2.9540556980263544e+00 0.0000000000000000e+00 1.4072444215357913e+00  2.9071698058317779e+00 0.0000000000000000e+00 1.3659323216795531e+00  2.8605451630417096e+00 0.0000000000000000e+00 1.3149355572638455e+00  2.8120070568691355e+00 0.0000000000000000e+00 1.2768078967430034e+00  2.7651127273706666e+00 0.0000000000000000e+00 1.2282023546279119e+00  2.7191633720054895e+00 0.0000000000000000e+00 1.1826499799515804e+00  2.6700664323950551e+00 0.0000000000000000e+00 1.1486337211465634e+00  2.6217825318717796e+00 0.0000000000000000e+00 1.1090532022186967e+00  2.5762015493433474e+00 0.0000000000000000e+00 1.0639110805634679e+00  2.5275216160547083e+00 0.0000000000000000e+00 1.0306876232973210e+00  2.4832619141565964e+00 0.0000000000000000e+00 9.8789956535151935e-01  2.4360441258234746e+00 0.0000000000000000e+00 9.5530920796005248e-01  2.3883747559977131e+00 0.0000000000000000e+00 9.1651731035291972e-01  2.3404206418623215e+00 0.0000000000000000e+00 8.8227582916482994e-01  2.2947258224671443e+00 0.0000000000000000e+00 8.4307157950175182e-01  2.2467049076988461e+00 0.0000000000000000e+00 8.1483768054247907e-01  2.2023237030727629e+00 0.0000000000000000e+00 7.7341167500189900e-01  2.1554839427938481e+00 0.0000000000000000e+00 7.4348060852302578e-01 