<?xml version="1.0"?>
<VTKFile type="UnstructuredGrid"  version="0.1"  >
<UnstructuredGrid>
<Piece  NumberOfPoints="3069" NumberOfCells="12882">
<Points>
<DataArray  type="Float64"  NumberOfComponents="3"  format="ascii">0 0 0  0 0 4  0 5.65685415 0  50 0 4  50 5.65685415 0  50 0 0  0 0 1  0 0 2  0 0 3  0 1.04967844 3.90746784  0 2.0669806 3.632725  0 3.02052855 3.18424606  0 3.88091111 2.5758636  0 4.62159061 1.82634306  0 5.21972132 0.958802283  0 4.71404505 0  0 3.77123618 0  0 2.82842708 0  0 1.88561809 0  0 0.942809045 0  0.5 0 4  1 0 4  1.5 0 4  2 0 4  2.5 0 4  3 0 4  3.5 0 4  4 0 4  4.5 0 4  5 0 4  5.5 0 4  6 0 4  6.5 0 4  7 0 4  7.5 0 4  8 0 4  8.5 0 4  9 0 4  9.5 0 4  10 0 4  10.5 0 4  11 0 4  11.5 0 4  12 0 4  12.5 0 4  13 0 4  13.5 0 4  14 0 4  14.5 0 4  15 0 4  15.5 0 4  16 0 4  16.5 0 4  17 0 4  17.5 0 4  18 0 4  18.5 0 4  19 0 4  19.5 0 4  20 0 4  20.5 0 4  21 0 4  21.5 0 4  22 0 4  22.5 0 4  23 0 4  23.5 0 4  24 0 4  24.5 0 4  25 0 4  25.5 0 4  26 0 4  26.5 0 4  27 0 4  27.5 0 4  28 0 4  28.5 0 4  29 0 4  29.5 0 4  30 0 4  30.5 0 4  31 0 4  31.5 0 4  32 0 4  32.5 0 4  33 0 4  33.5 0 4  34 0 4  34.5 0 4  35 0 4  35.5 0 4  36 0 4  36.5 0 4  37 0 4  37.5 0 4  38 0 4  38.5 0 4  39 0 4  39.5 0 4  40 0 4  40.5 0 4  41 0 4  41.5 0 4  42 0 4  42.5 0 4  43 0 4  43.5 0 4  44 0 4  44.5 0 4  45 0 4  45.5 0 4  46 0 4  46.5 0 4  47 0 4  47.5 0 4  48 0 4  48.5 0 4  49 0 4  49.5 0 4  50 1.04967844 3.90746784  50 2.0669806 3.632725  50 3.02052855 3.18424606  50 3.88091111 2.5758636  50 4.62159061 1.82634306  50 5.21972132 0.958802283  49.5 5.65685415 0  49 5.65685415 0  48.5 5.65685415 0  48 5.65685415 0  47.5 5.65685415 0  47 5.65685415 0  46.5 5.65685415 0  46 5.65685415 0  45.5 5.65685415 0  45 5.65685415 0  44.5 5.65685415 0  44 5.65685415 0  43.5 5.65685415 0  43 5.65685415 0  42.5 5.65685415 0  42 5.65685415 0  41.5 5.65685415 0  41 5.65685415 0  40.5 5.65685415 0  40 5.65685415 0  39.5 5.65685415 0  39 5.65685415 0  38.5 5.65685415 0  38 5.65685415 0  37.5 5.65685415 0  37 5.65685415 0  36.5 5.65685415 0  36 5.65685415 0  35.5 5.65685415 0  35 5.65685415 0  34.5 5.65685415 0  34 5.65685415 0  33.5 5.65685415 0  33 5.65685415 0  32.5 5.65685415 0  32 5.65685415 0  31.5 5.65685415 0  31 5.65685415 0  30.5 5.65685415 0  30 5.65685415 0  29.5 5.65685415 0  29 5.65685415 0  28.5 5.65685415 0  28 5.65685415 0  27.5 5.65685415 0  27 5.65685415 0  26.5 5.65685415 0  26 5.65685415 0  25.5 5.65685415 0  25 5.65685415 0  24.5 5.65685415 0  24 5.65685415 0  23.5 5.65685415 0  23 5.65685415 0  22.5 5.65685415 0  22 5.65685415 0  21.5 5.65685415 0  21 5.65685415 0  20.5 5.65685415 0  20 5.65685415 0  19.5 5.65685415 0  19 5.65685415 0  18.5 5.65685415 0  18 5.65685415 0  17.5 5.65685415 0  17 5.65685415 0  16.5 5.65685415 0  16 5.65685415 0  15.5 5.65685415 0  15 5.65685415 0  14.5 5.65685415 0  14 5.65685415 0  13.5 5.65685415 0  13 5.65685415 0  12.5 5.65685415 0  12 5.65685415 0  11.5 5.65685415 0  11 5.65685415 0  10.5 5.65685415 0  10 5.65685415 0  9.5 5.65685415 0  9 5.65685415 0  8.5 5.65685415 0  8 5.65685415 0  7.5 5.65685415 0  7 5.65685415 0  6.5 5.65685415 0  6 5.65685415 0  5.5 5.65685415 0  5 5.65685415 0  4.5 5.65685415 0  4 5.65685415 0  3.5 5.65685415 0  3 5.65685415 0  2.5 5.65685415 0  2 5.65685415 0  1.5 5.65685415 0  1 5.65685415 0  0.5 5.65685415 0  50 4.71404505 0  50 3.77123618 0  50 2.82842708 0  50 1.88561809 0  50 0.942809045 0  49.5 0 0  49 0 0  48.5 0 0  48 0 0  47.5 0 0  47 0 0  46.5 0 0  46 0 0  45.5 0 0  45 0 0  44.5 0 0  44 0 0  43.5 0 0  43 0 0  42.5 0 0  42 0 0  41.5 0 0  41 0 0  40.5 0 0  40 0 0  39.5 0 0  39 0 0  38.5 0 0  38 0 0  37.5 0 0  37 0 0  36.5 0 0  36 0 0  35.5 0 0  35 0 0  34.5 0 0  34 0 0  33.5 0 0  33 0 0  32.5 0 0  32 0 0  31.5 0 0  31 0 0  30.5 0 0  30 0 0  29.5 0 0  29 0 0  28.5 0 0  28 0 0  27.5 0 0  27 0 0  26.5 0 0  26 0 0  25.5 0 0  25 0 0  24.5 0 0  24 0 0  23.5 0 0  23 0 0  22.5 0 0  22 0 0  21.5 0 0  21 0 0  20.5 0 0  20 0 0  19.5 0 0  19 0 0  18.5 0 0  18 0 0  17.5 0 0  17 0 0  16.5 0 0  16 0 0  15.5 0 0  15 0 0  14.5 0 0  14 0 0  13.5 0 0  13 0 0  12.5 0 0  12 0 0  11.5 0 0  11 0 0  10.5 0 0  10 0 0  9.5 0 0  9 0 0  8.5 0 0  8 0 0  7.5 0 0  7 0 0  6.5 0 0  6 0 0  5.5 0 0  5 0 0  4.5 0 0  4 0 0  3.5 0 0  3 0 0  2.5 0 0  2 0 0  1.5 0 0  1 0 0  0.5 0 0  50 0 1  50 0 2  50 0 3  0 2.33524275 0.893602192  0 2.87561393 1.93323028  0 4.2367816 0.876864135  0 2.00050235 2.65534091  0 0.981494486 2.34323239  0 3.78543234 1.61830366  0 3.30545568 0.887000024  0 0.812916458 1.58408713  0 1.71948838 1.71268857  0 1.28267908 0.8650629520000001  0 1.21973121 3.10775328  0.5 5.21972132 0.958802223  0.5 4.62159061 1.82634306  0.5 3.88091111 2.5758636  0.5 3.02052855 3.18424606  0.5 2.0669806 3.632725  0.5 1.04967844 3.90746784  1 5.21972132 0.958802223  1 4.62159061 1.82634306  1 3.88091111 2.5758636  1 3.02052855 3.18424606  1 2.0669806 3.632725  1 1.04967844 3.90746784  1.5 5.21972132 0.958802223  1.5 4.62159061 1.82634306  1.5 3.88091111 2.5758636  1.5 3.02052855 3.18424606  1.5 2.0669806 3.632725  1.5 1.04967844 3.90746784  2 5.21972132 0.958802223  2 4.62159061 1.82634306  2 3.88091111 2.5758636  2 3.02052855 3.18424606  2 2.0669806 3.632725  2 1.04967844 3.90746784  2.5 5.21972132 0.958802223  2.5 4.62159061 1.82634306  2.5 3.88091111 2.5758636  2.5 3.02052855 3.18424606  2.5 2.0669806 3.632725  2.5 1.04967844 3.90746784  3 5.21972132 0.958802223  3 4.62159061 1.82634306  3 3.88091111 2.5758636  3 3.02052855 3.18424606  3 2.0669806 3.632725  3 1.04967844 3.90746784  3.5 5.21972132 0.958802223  3.5 4.62159061 1.82634306  3.5 3.88091111 2.5758636  3.5 3.02052855 3.18424606  3.5 2.0669806 3.632725  3.5 1.04967844 3.90746784  4 5.21972132 0.958802223  4 4.62159061 1.82634306  4 3.88091111 2.5758636  4 3.02052855 3.18424606  4 2.0669806 3.632725  4 1.04967844 3.90746784  4.5 5.21972132 0.958802223  4.5 4.62159061 1.82634306  4.5 3.88091111 2.5758636  4.5 3.02052855 3.18424606  4.5 2.0669806 3.632725  4.5 1.04967844 3.90746784  5 5.21972132 0.958802223  5 4.62159061 1.82634306  5 3.88091111 2.5758636  5 3.02052855 3.18424606  5 2.0669806 3.632725  5 1.04967844 3.90746784  5.5 5.21972132 0.958802223  5.5 4.62159061 1.82634306  5.5 3.88091111 2.5758636  5.5 3.02052855 3.18424606  5.5 2.0669806 3.632725  5.5 1.04967844 3.90746784  6 5.21972132 0.958802223  6 4.62159061 1.82634306  6 3.88091111 2.5758636  6 3.02052855 3.18424606  6 2.0669806 3.632725  6 1.04967844 3.90746784  6.5 5.21972132 0.958802223  6.5 4.62159061 1.82634306  6.5 3.88091111 2.5758636  6.5 3.02052855 3.18424606  6.5 2.0669806 3.632725  6.5 1.04967844 3.90746784  7 5.21972132 0.958802223  7 4.62159061 1.82634306  7 3.88091111 2.5758636  7 3.02052855 3.18424606  7 2.0669806 3.632725  7 1.04967844 3.90746784  7.5 5.21972132 0.958802223  7.5 4.62159061 1.82634306  7.5 3.88091111 2.5758636  7.5 3.02052855 3.18424606  7.5 2.0669806 3.632725  7.5 1.04967844 3.90746784  8 5.21972132 0.958802223  8 4.62159061 1.82634306  8 3.88091111 2.5758636  8 3.02052855 3.18424606  8 2.0669806 3.632725  8 1.04967844 3.90746784  8.5 5.21972132 0.958802223  8.5 4.62159061 1.82634306  8.5 3.88091111 2.5758636  8.5 3.02052855 3.18424606  8.5 2.0669806 3.632725  8.5 1.04967844 3.90746784  9 5.21972132 0.958802223  9 4.62159061 1.82634306  9 3.88091111 2.5758636  9 3.02052855 3.18424606  9 2.0669806 3.632725  9 1.04967844 3.90746784  9.5 5.21972132 0.958802223  9.5 4.62159061 1.82634306  9.5 3.88091111 2.5758636  9.5 3.02052855 3.18424606  9.5 2.0669806 3.632725  9.5 1.04967844 3.90746784  10 5.21972132 0.958802223  10 4.62159061 1.82634306  10 3.88091111 2.5758636  10 3.02052855 3.18424606  10 2.0669806 3.632725  10 1.04967844 3.90746784  10.5 5.21972132 0.958802223  10.5 4.62159061 1.82634306  10.5 3.88091111 2.5758636  10.5 3.02052855 3.18424606  10.5 2.0669806 3.632725  10.5 1.04967844 3.90746784  11 5.21972132 0.958802223  11 4.62159061 1.82634306  11 3.88091111 2.5758636  11 3.02052855 3.18424606  11 2.0669806 3.632725  11 1.04967844 3.90746784  11.5 5.21972132 0.958802223  11.5 4.62159061 1.82634306  11.5 3.88091111 2.5758636  11.5 3.02052855 3.18424606  11.5 2.0669806 3.632725  11.5 1.04967844 3.90746784  12 5.21972132 0.958802223  12 4.62159061 1.82634306  12 3.88091111 2.5758636  12 3.02052855 3.18424606  12 2.0669806 3.632725  12 1.04967844 3.90746784  12.5 5.21972132 0.958802223  12.5 4.62159061 1.82634306  12.5 3.88091111 2.5758636  12.5 3.02052855 3.18424606  12.5 2.0669806 3.632725  12.5 1.04967844 3.90746784  13 5.21972132 0.958802223  13 4.62159061 1.82634306  13 3.88091111 2.5758636  13 3.02052855 3.18424606  13 2.0669806 3.632725  13 1.04967844 3.90746784  13.5 5.21972132 0.958802223  13.5 4.62159061 1.82634306  13.5 3.88091111 2.5758636  13.5 3.02052855 3.18424606  13.5 2.0669806 3.632725  13.5 1.04967844 3.90746784  14 5.21972132 0.958802223  14 4.62159061 1.82634306  14 3.88091111 2.5758636  14 3.02052855 3.18424606  14 2.0669806 3.632725  14 1.04967844 3.90746784  14.5 5.21972132 0.958802223  14.5 4.62159061 1.82634306  14.5 3.88091111 2.5758636  14.5 3.02052855 3.18424606  14.5 2.0669806 3.632725  14.5 1.04967844 3.90746784  15 5.21972132 0.958802223  15 4.62159061 1.82634306  15 3.88091111 2.5758636  15 3.02052855 3.18424606  15 2.0669806 3.632725  15 1.04967844 3.90746784  15.5 5.21972132 0.958802223  15.5 4.62159061 1.82634306  15.5 3.88091111 2.5758636  15.5 3.02052855 3.18424606  15.5 2.0669806 3.632725  15.5 1.04967844 3.90746784  16 5.21972132 0.958802223  16 4.62159061 1.82634306  16 3.88091111 2.5758636  16 3.02052855 3.18424606  16 2.0669806 3.632725  16 1.04967844 3.90746784  16.5 5.21972132 0.958802223  16.5 4.62159061 1.82634306  16.5 3.88091111 2.5758636  16.5 3.02052855 3.18424606  16.5 2.0669806 3.632725  16.5 1.04967844 3.90746784  17 5.21972132 0.958802223  17 4.62159061 1.82634306  17 3.88091111 2.5758636  17 3.02052855 3.18424606  17 2.0669806 3.632725  17 1.04967844 3.90746784  17.5 5.21972132 0.958802223  17.5 4.62159061 1.82634306  17.5 3.88091111 2.5758636  17.5 3.02052855 3.18424606  17.
[...]
<PointData  Vectors="f_261141-0"> 
<DataArray  type="Float64"  Name="f_261141-0"  NumberOfComponents="3" format="ascii">0.0000000000000000e+00 0.0000000000000000e+00 0.0000000000000000e+00  0.0000000000000000e+00 0.0000000000000000e+00 1.3612031021353449e-01  0.0000000000000000e+00 2.9563548196141476e-01 0.0000000000000000e+00  1.7539820705383107e+00 0.0000000000000000e+00 3.2847197622503699e+00  2.3991649369713088e+00 2.3451060518988173e-01 3.3349740224939817e+00  2.3254708494684646e+00 0.0000000000000000e+00 3.2419465411665480e+00  0.0000000000000000e+00 0.0000000000000000e+00 6.1555086081857259e-02  0.0000000000000000e+00 0.0000000000000000e+00 7.8323583180534756e-02  0.0000000000000000e+00 0.0000000000000000e+00 8.3775996485708451e-02  0.0000000000000000e+00 1.2759458512892227e-02 1.3920064177848424e-01  0.0000000000000000e+00 6.1073234288652654e-02 1.6576259541897886e-01  0.0000000000000000e+00 1.1095810869894771e-01 1.5559939700566086e-01  0.0000000000000000e+00 1.6066472892056693e-01 1.3560918591623239e-01  0.0000000000000000e+00 2.0888790370798774e-01 1.1216619024248255e-01  0.0000000000000000e+00 2.5615318801650272e-01 5.9783082210826580e-02  0.0000000000000000e+00 2.3075130612841277e-01 0.0000000000000000e+00  0.0000000000000000e+00 1.7278865865642704e-01 0.0000000000000000e+00  0.0000000000000000e+00 1.1993954439277145e-01 0.0000000000000000e+00  0.0000000000000000e+00 7.3636095836767210e-02 0.0000000000000000e+00  0.0000000000000000e+00 3.4646106769256807e-02 0.0000000000000000e+00  2.1259748202765303e-02 0.0000000000000000e+00 1.3640286309116964e-01  3.9095543934617540e-02 0.0000000000000000e+00 1.3330841990509057e-01  5.7714550488313754e-02 0.0000000000000000e+00 1.3321225433562064e-01  7.7070959148632628e-02 0.0000000000000000e+00 1.3491146450188191e-01  9.9251247377860355e-02 0.0000000000000000e+00 1.3419891965126116e-01  1.1639600645562441e-01 0.0000000000000000e+00 1.4030460061242178e-01  1.3764928935704729e-01 0.0000000000000000e+00 1.4405162115906986e-01  1.5482297661376668e-01 0.0000000000000000e+00 1.5127642903041497e-01  1.7435848675328303e-01 0.0000000000000000e+00 1.6049406486560880e-01  1.9340249673162202e-01 0.0000000000000000e+00 1.7344845271431852e-01  2.1454804494930541e-01 0.0000000000000000e+00 1.8060985079257208e-01  2.3557923403252221e-01 0.0000000000000000e+00 1.7983994154135655e-01  2.5439505606021584e-01 0.0000000000000000e+00 1.8951896784652075e-01  2.7038731389159543e-01 0.0000000000000000e+00 2.0145083632319219e-01  2.9526982327959550e-01 0.0000000000000000e+00 2.0691453346105745e-01  3.1102555721059288e-01 0.0000000000000000e+00 2.1940855191743275e-01  3.3045718669253771e-01 0.0000000000000000e+00 2.3193711385732163e-01  3.4996173107321699e-01 0.0000000000000000e+00 2.4571438696361012e-01  3.7045725478896868e-01 0.0000000000000000e+00 2.5380395137206435e-01  3.9073852585734442e-01 0.0000000000000000e+00 2.6392303202612383e-01  4.1030732774446688e-01 0.0000000000000000e+00 2.7205120168560259e-01  4.3246788359963562e-01 0.0000000000000000e+00 2.8917225436326421e-01  4.5135854425733118e-01 0.0000000000000000e+00 2.9973403434551671e-01  4.7065391059473843e-01 0.0000000000000000e+00 3.1543065006392124e-01  4.9163321168208995e-01 0.0000000000000000e+00 3.3009604308452750e-01  5.0907954281872503e-01 0.0000000000000000e+00 3.4829733700951893e-01  5.2632213610249468e-01 0.0000000000000000e+00 3.7003158246507689e-01  5.4750068395135376e-01 0.0000000000000000e+00 3.8100277923962189e-01  5.6474212334543883e-01 0.0000000000000000e+00 4.0131872101690369e-01  5.8196493018689521e-01 0.0000000000000000e+00 4.2354696093976735e-01  6.0758397125934638e-01 0.0000000000000000e+00 4.3066478940130015e-01  6.2876369232004492e-01 0.0000000000000000e+00 4.5407725059912274e-01  6.4601613429652160e-01 0.0000000000000000e+00 4.7893835368446364e-01  6.6600989944787392e-01 0.0000000000000000e+00 5.0003753626923320e-01  6.8520110883545060e-01 0.0000000000000000e+00 5.2506456544544888e-01  7.0549450804491132e-01 0.0000000000000000e+00 5.4375721980142044e-01  7.2226285546182523e-01 0.0000000000000000e+00 5.7061717587202210e-01  7.4226444913915102e-01 0.0000000000000000e+00 5.8840732698354437e-01  7.6038134760041221e-01 0.0000000000000000e+00 6.1758262506922601e-01  7.7946877447067831e-01 0.0000000000000000e+00 6.3851354632005264e-01  8.0113915353552279e-01 0.0000000000000000e+00 6.6076131474518984e-01  8.1640694122529600e-01 0.0000000000000000e+00 6.8489351839447943e-01  8.3671920324722404e-01 0.0000000000000000e+00 7.1023794568101029e-01  8.5186273856305905e-01 0.0000000000000000e+00 7.4509756943781413e-01  8.7433675805062838e-01 0.0000000000000000e+00 7.6742217858078410e-01  8.9332682026456633e-01 0.0000000000000000e+00 7.9671157041479734e-01  9.1205320592152450e-01 0.0000000000000000e+00 8.2186823697842193e-01  9.2860575337631901e-01 0.0000000000000000e+00 8.5343988024446193e-01  9.4855786783115048e-01 0.0000000000000000e+00 8.8365314994936528e-01  9.6513982402404752e-01 0.0000000000000000e+00 9.1798580801270102e-01  9.8416605112075450e-01 0.0000000000000000e+00 9.5310941072156996e-01  1.0037592010037011e+00 0.0000000000000000e+00 9.8288719313353978e-01  1.0205646214718334e+00 0.0000000000000000e+00 1.0217218890215027e+00  1.0402257026339450e+00 0.0000000000000000e+00 1.0537620156965690e+00  1.0595812495685148e+00 0.0000000000000000e+00 1.0858196466554546e+00  1.0740943783145933e+00 0.0000000000000000e+00 1.1187386656988751e+00  1.0949740309609532e+00 0.0000000000000000e+00 1.1554110574060623e+00  1.1133985572853231e+00 0.0000000000000000e+00 1.1944613470987517e+00  1.1311393343773426e+00 0.0000000000000000e+00 1.2313464088517276e+00  1.1460941192375191e+00 0.0000000000000000e+00 1.2719324071405227e+00  1.1644049069237670e+00 0.0000000000000000e+00 1.3125860328810435e+00  1.1837082859448163e+00 0.0000000000000000e+00 1.3498131161350129e+00  1.2018029575760980e+00 0.0000000000000000e+00 1.3883211190986233e+00  1.2217316381540020e+00 0.0000000000000000e+00 1.4309233754517876e+00  1.2387683991278036e+00 0.0000000000000000e+00 1.4714955320723500e+00  1.2545966607881751e+00 0.0000000000000000e+00 1.5134933928393817e+00  1.2737543645181610e+00 0.0000000000000000e+00 1.5540097533533919e+00  1.2938028818122715e+00 0.0000000000000000e+00 1.5980430944816220e+00  1.3091219097146283e+00 0.0000000000000000e+00 1.6419724643101208e+00  1.3269611808867317e+00 0.0000000000000000e+00 1.6908164450141485e+00  1.3445512678243969e+00 0.0000000000000000e+00 1.7337651298591552e+00  1.3626073376463534e+00 0.0000000000000000e+00 1.7798365803245599e+00  1.3768962441780810e+00 0.0000000000000000e+00 1.8329720050639331e+00  1.3950070848083169e+00 0.0000000000000000e+00 1.8798144670598878e+00  1.4131970941907945e+00 0.0000000000000000e+00 1.9253627420439972e+00  1.4327724540137869e+00 0.0000000000000000e+00 1.9746194563565516e+00  1.4480515548106190e+00 0.0000000000000000e+00 2.0253738977797209e+00  1.4664443543449994e+00 0.0000000000000000e+00 2.0727263660147530e+00  1.4804413271026038e+00 0.0000000000000000e+00 2.1276934023018934e+00  1.4972554329307091e+00 0.0000000000000000e+00 2.1799864201869927e+00  1.5158339959767206e+00 0.0000000000000000e+00 2.2331665168264037e+00  1.5301327977199266e+00 0.0000000000000000e+00 2.2860617841984419e+00  1.5468659286180442e+00 0.0000000000000000e+00 2.3421629312892254e+00  1.5658585707617376e+00 0.0000000000000000e+00 2.3940091789224298e+00  1.5812299166043911e+00 0.0000000000000000e+00 2.4454392406758512e+00  1.5972340748873237e+00 0.0000000000000000e+00 2.5015468342374381e+00  1.6150275819072293e+00 0.0000000000000000e+00 2.5533236651992488e+00  1.6308358711879507e+00 0.0000000000000000e+00 2.6106636852630598e+00  1.6483564258329613e+00 0.0000000000000000e+00 2.6655793138522053e+00  1.6643644459915643e+00 0.0000000000000000e+00 2.7233571735449589e+00  1.6772862535861670e+00 0.0000000000000000e+00 2.7824591249505053e+00  1.6921260402896598e+00 0.0000000000000000e+00 2.8417304727158741e+00  1.7076285988688293e+00 0.0000000000000000e+00 2.8972929999747752e+00  1.7235274216772767e+00 0.0000000000000000e+00 2.9491167227499879e+00  1.7377567505934155e+00 0.0000000000000000e+00 2.9974667872938445e+00  1.7451385007191558e+00 0.0000000000000000e+00 3.0491633850542175e+00  1.7504765676746015e+00 0.0000000000000000e+00 3.1016270814146405e+00  1.7534667996953650e+00 0.0000000000000000e+00 3.1580887471518202e+00  1.7529984602873638e+00 0.0000000000000000e+00 3.2167088118119374e+00  1.7832384807592103e+00 1.4835997231356511e-03 3.2830027602597660e+00  1.8312149232458579e+00 1.0702410341769870e-02 3.2955120112772303e+00  1.8972904511276854e+00 2.8227610903422060e-02 3.3161695601116556e+00  1.9895683299250742e+00 5.7337339073185542e-02 3.3349554780603321e+00  2.1040919433333953e+00 1.0135851699942006e-01 3.3560976865509584e+00  2.2511975360773020e+00 1.5959242595034898e-01 3.3592542202431184e+00  2.3773549088118129e+00 2.4548759936649553e-01 3.2624981572978644e+00  2.3539132379708030e+00 2.5539341426715162e-01 3.1881982598586496e+00  2.3309302441903479e+00 2.6616743846457613e-01 3.1134860550299286e+00  2.3090068660225489e+00 2.7452976749789088e-01 3.0384858020413006e+00  2.2842499181531508e+00 2.8267966666124139e-01 2.9664483057067956e+00  2.2576767021352415e+00 2.8726560096683379e-01 2.8966791632920774e+00  2.2305865705846037e+00 2.9140920150748356e-01 2.8284218037363975e+00  2.2038513310915762e+00 2.9251007377397359e-01 2.7613973373492788e+00  2.1781180854882121e+00 2.9327626348208985e-01 2.6946810718181817e+00  2.1520849292043014e+00 2.9342924780418911e-01 2.6303710607246460e+00  2.1273784351419098e+00 2.9422475693484296e-01 2.5661820033525813e+00  2.1027256092128495e+00 2.9227642442898000e-01 2.5051344580803145e+00  2.0785851533357858e+00 2.9190572455787345e-01 2.4444965508490637e+00  2.0546724632719378e+00 2.9159521106542213e-01 2.3853995516015258e+00  2.0313326945044601e+00 2.9093043493890591e-01 2.3285865924282412e+00  2.0095369938763983e+00 2.9126809729819098e-01 2.2715127785102109e+00  1.9860147443755538e+00 2.9054702094862928e-01 2.2134427926154734e+00  1.9633665832652785e+00 2.8776658122001886e-01 2.1584738673662311e+00  1.9399568369246074e+00 2.8757968824012747e-01 2.1036674547304584e+00  1.9166319137559535e+00 2.8629284070590244e-01 2.0489205266512118e+00  1.8941057428840795e+00 2.8382444049529559e-01 1.9946601685263217e+00  1.8718164726737629e+00 2.8504269460096121e-01 1.9385953085275072e+00  1.8494260354856593e+00 2.8303493132901580e-01 1.8867417685138193e+00  1.8263431842339870e+00 2.8599575938535404e-01 1.8346541647076677e+00  1.8033469173611583e+00 2.8470021589904521e-01 1.7846614286578213e+00  1.7805185363311058e+00 2.8227734851713182e-01 1.7361545238854945e+00  1.7577670704721520e+00 2.8286392413442535e-01 1.6881119917080030e+00  1.7350884409886143e+00 2.8426758344353592e-01 1.6400241576460457e+00  1.7124100213450637e+00 2.8153418836931132e-01 1.5942708124974434e+00  1.6900546838714818e+00 2.8320802790694044e-01 1.5473215515330994e+00  1.6672645151880574e+00 2.8289771991384149e-01 1.5020953109281425e+00  1.6444646674574985e+00 2.8061344116778364e-01 1.4587849665601402e+00  1.6213541612409232e+00 2.8226452141409358e-01 1.4152474891977154e+00  1.5986273989336430e+00 2.8331571965537944e-01 1.3727097033421540e+00  1.5755290807708682e+00 2.8339100244555004e-01 1.3308236722427558e+00  1.5527993824607476e+00 2.8521218309527113e-01 1.2888474063665734e+00  1.5295780914408752e+00 2.8568226129338503e-01 1.2479321293245964e+00  1.5060524077647275e+00 2.8472211112044854e-01 1.2075847750024722e+00  1.4828102677582511e+00 2.8302158800408522e-01 1.1685345107410763e+00  1.4591020957985694e+00 2.8630599282384006e-01 1.1297605609378782e+00  1.4354931735620566e+00 2.8752126454445626e-01 1.0907393171623618e+00  1.4116120904693543e+00 2.8488382262411999e-01 1.0537198307533375e+00  1.3868531038626135e+00 2.8711502218847756e-01 1.0145953791843241e+00  1.3631680937701864e+00 2.8592746474967179e-01 9.7558568128117129e-01  1.3398432163599590e+00 2.8348692004638210e-01 9.3899977955563163e-01  1.3162906220160335e+00 2.8452844892744428e-01 9.0266975500053992e-01  1.2921755344913755e+00 2.8546147085010598e-01 8.6713278390803872e-01  1.2684378820341522e+00 2.8331426289727679e-01 8.3393978752712383e-01  1.2444605515584544e+00 2.8395455875533659e-01 7.9920989072029425e-01  1.2208695128734721e+00 2.8252347787382698e-01 7.6509394767714090e-01  1.1965088023898238e+00 2.8195936637660640e-01 7.3353564192405363e-01  1.1726941642930511e+00 2.8128079640802950e-01 7.0293370568025160e-01  1.1490298395894292e+00 2.8257394012342230e-01 6.7256614738272091e-01  1.1247793236754433e+00 2.8330383114548907e-01 6.4191290570993420e-01  1.1008714487046993e+00 2.8109445536856015e-01 6.1390881822947263e-01  1.0767152372988322e+00 2.8100725448384728e-01 5.8512796256003585e-01  1.0528059542188182e+00 2.8224015238992090e-01 5.5657654656336197e-01  1.0289948138742104e+00 2.8206460548690937e-01 5.2950454212386189e-01  1.0044581617168455e+00 2.8190299860226670e-01 5.0432954345170278e-01  9.7949961578901756e-01 2.8309246406226868e-01 4.7893013617225022e-01  9.5549950244081383e-01 2.8075772681221528e-01 4.5529930042042138e-01  9.3092318508607141e-01 2.8175404052168085e-01 4.3231251516357971e-01  9.0654698538738876e-01 2.8281430162627325e-01 4.0948378577105776e-01  8.8233852364612986e-01 2.8279705193950117e-01 3.8732818351218640e-01  8.5814663342792841e-01 2.8313025905492267e-01 3.6590117366438690e-01  8.3378588509932194e-01 2.8524789392239741e-01 3.4445199025558676e-01  8.0886912438715508e-01 2.8421568338453224e-01 3.2639279646530167e-01  7.8510255592126676e-01 2.8641016502597882e-01 3.0598788260105880e-01  7.6031573848017198e-01 2.8500491660036575e-01 2.8729803583269620e-01  7.3574327344360169e-01 2.8529937679916073e-01 2.6732971272405470e-01  7.1154620867218510e-01 2.8414139354849255e-01 2.4817694894921574e-01  6.8753622391983171e-01 2.8488967059416931e-01 2.2943586858521695e-01  6.6361994013698899e-01 2.8367737785008201e-01 2.1250135702752065e-01  6.3885828634376107e-01 2.8408700454090619e-01 1.9526048210574073e-01  6.1455079611609043e-01 2.8293140669734057e-01 1.7879778115954900e-01  5.8949923011723437e-01 2.8464557151528508e-01 1.6260906043450218e-01  5.6484884697678128e-01 2.8479585979282052e-01 1.4831098536053172e-01  5.3992694830823373e-01 2.8437422971630860e-01 1.3455346265380658e-01  5.1569164168505244e-01 2.8461832029537587e-01 1.2173964664734875e-01  4.9164164899180895e-01 2.8521262620199234e-01 1.0785737513365631e-01  4.6679760876063331e-01 2.8340632537253074e-01 9.6165193209011735e-02  4.4261610038672533e-01 2.8307628802466256e-01 8.4628803292911448e-02  4.1805967569071129e-01 2.8564548355299491e-01 7.2797482937711558e-02  3.9354514328746587e-01 2.8615140981499104e-01 6.3295348010500629e-02  3.6876126957387639e-01 2.8574243298058161e-01 5.4745033689339383e-02  3.4417066637421850e-01 2.8600873183559367e-01 4.5419272893232179e-02  3.1902354828401136e-01 2.8602439718471406e-01 3.6481917465267542e-02  2.9430014850675479e-01 2.8469361533289367e-01 2.9869550774381536e-02  2.6986463461197335e-01 2.8492116242202636e-01 2.3520742866741679e-02  2.4533039921517588e-01 2.8513306965875235e-01 1.7838657135265445e-02  2.2153447230339698e-01 2.8755807403859929e-01 1.2459717932891285e-02  1.9705626359316697e-01 2.8788439174262576e-01 8.8465934484253227e-03  1.7273750776797961e-01 2.8794762287100556e-01 5.8320504805312607e-03  1.4835966888698510e-01 2.8960682959923451e-01 3.0266521825190718e-03  1.2348082015359556e-01 2.9233855708579759e-01 2.2886029042141701e-04  9.8938287830927452e-02 2.9061224485760495e-01 1.5077869963431895e-03  7.3886399111533788e-02 2.9270443173555544e-01 1.1378735999996192e-03  4.8555574173699233e-02 2.9333867636446342e-01 0.0000000000000000e+00  2.3413210891147895e-02 2.9485054679654998e-01 0.0000000000000000e+00  2.3842349982788789e+00 1.7847998193511944e-01 3.3041325856687842e+00  2.3677052338248132e+00 1.3576378675611681e-01 3.2798492084326276e+00  2.3482372149868440e+00 9.3081779051368232e-02 3.2590554129932148e+00  2.3477572071631592e+00 6.6367595696981196e-02 3.2607203694313522e+00  2.3328246064967657e+00 2.9074976649950179e-02 3.2483750785863359e+00  2.3001694120281488e+00 0.0000000000000000e+00 3.1648295246320277e+00  2.2792619885055339e+00 0.0000000000000000e+00 3.0974465658888737e+00  2.2572711620398360e+00 0.0000000000000000e+00 3.0277534120522978e+00  2.2371754045251704e+00 0.0000000000000000e+00 2.9642640063143864e+00  2.2130138299682329e+00 0.0000000000000000e+00 2.9074589460110047e+00  2.1945812887789513e+00 0.0000000000000000e+00 2.8455784394818431e+00  2.1729197650430931e+00 0.0000000000000000e+00 2.7906487050955979e+00  2.1535110695444648e+00 0.0000000000000000e+00 2.7339845639909388e+00  2.1375353906521175e+00 0.0000000000000000e+00 2.6705079709321788e+00  2.1152668244528416e+00 0.0000000000000000e+00 2.6217637370242968e+00  2.0948188830721994e+00 0.0000000000000000e+00 2.5684496987158316e+00  2.0752395084584285e+00 0.0000000000000000e+00 2.5077941640309960e+00  2.0557625231383785e+00 0.0000000000000000e+00 2.4485937414847863e+00  2.0379024471711702e+00 0.0000000000000000e+00 2.3894367502866753e+00  2.0153538634023320e+00 0.0000000000000000e+00 2.3438532975273203e+00  1.9907875028011579e+00 0.0000000000000000e+00 2.2915435498544001e+00  1.9678290002280847e+00 0.0000000000000000e+00 2.2373290293972485e+00  1.9508521708195383e+00 0.0000000000000000e+00 2.1765037662116464e+00  1.9302714394308897e+00 0.0000000000000000e+00 2.1333578272646405e+00  1.9079959231488499e+00 0.0000000000000000e+00 2.0767784520198158e+00  1.8895038379725493e+00 0.0000000000000000e+00 2.0199349023527122e+00  1.8627701196454161e+00 0.0000000000000000e+00 1.9787687952312631e+00  1.8433661241637054e+00 0.0000000000000000e+00 1.9210550933805268e+00  1.8229898972692935e+00 0.0000000000000000e+00 1.8766566722130065e+00  1.7977225185563299e+00 0.0000000000000000e+00 1.8247739912774616e+00  1.7739092891808799e+00 0.0000000000000000e+00 1.7746188973117569e+00  1.7546948265687881e+00 0.0000000000000000e+00 1.7179656424091003e+00  1.7312307610721291e+00 0.0000000000000000e+00 1.6789587248932256e+00  1.7093815388409752e+00 0.0000000000000000e+00 1.6294520777478609e+00  1.6879648432573591e+00 0.0000000000000000e+00 1.5877427703178022e+00  1.6613111176008422e+00 0.0000000000000000e+00 1.5455222290414059e+00  1.6366726279341102e+00 0.0000000000000000e+00 1.4996103751530112e+00  1.6184136943146268e+00 0.0000000000000000e+00 1.4467390929483326e+00  1.5958107956141889e+00 0.0000000000000000e+00 1.4088736794888415e+00  1.5747355273072636e+00 0.0000000000000000e+00 1.3587464296429785e+00  1.5493873063394874e+00 0.0000000000000000e+00 1.3262040727115001e+00  1.5247875519153975e+00 0.0000000000000000e+00 1.2799490058918808e+00  1.5053003798139333e+00 0.0000000000000000e+00 1.2361338442914604e+00  1.4815049272713146e+00 0.0000000000000000e+00 1.2023110428821542e+00  1.4588029923122539e+00 0.0000000000000000e+00 1.1542622484911667e+00  1.4328657260983808e+00 0.0000000000000000e+00 1.1236071165849146e+00  1.4073858164288116e+00 0.0000000000000000e+00 1.0794708970454949e+00  1.3865244562807155e+00 0.0000000000000000e+00 1.0363036018774876e+00  1.3605191213949723e+00 0.0000000000000000e+00 1.0098433242532936e+00  1.3340893624390937e+00 0.0000000000000000e+00 9.7633884891582745e-01  1.3128663844444768e+00 0.0000000000000000e+00 9.3381723581285825e-01  1.2873714232962943e+00 0.0000000000000000e+00 9.0683402233135257e-01  1.2671319041070974e+00 0.0000000000000000e+00 8.6650051435446240e-01  1.2431069133363737e+00 0.0000000000000000e+00 8.4017642485218125e-01  1.2177963286924249e+00 0.0000000000000000e+00 8.0615048562865488e-01  1.1919402995570920e+00 0.0000000000000000e+00 7.7441777088645236e-01  1.1704284327781043e+00 0.0000000000000000e+00 7.3764017406745530e-01  1.1446531983974375e+00 0.0000000000000000e+00 7.1628997368009617e-01  1.1239208393076738e+00 0.0000000000000000e+00 6.7796985249478114e-01  1.0997058486004629e+00 0.0000000000000000e+00 6.5452553929852397e-01  