<?xml version="1.0"?>
<VTKFile type="UnstructuredGrid"  version="0.1"  >
<UnstructuredGrid>
<Piece  NumberOfPoints="3069" NumberOfCells="12882">
<Points>
<DataArray  type="Float64"  NumberOfComponents="3"  format="ascii">0 0 0  0 0 4  0 5.65685415 0  50 0 4  50 5.65685415 0  50 0 0  0 0 1  0 0 2  0 0 3  0 1.04967844 3.90746784  0 2.0669806 3.632725  0 3.02052855 3.18424606  0 3.88091111 2.5758636  0 4.62159061 1.82634306  0 5.21972132 0.958802283  0 4.71404505 0  0 3.77123618 0  0 2.82842708 0  0 1.88561809 0  0 0.942809045 0  0.5 0 4  1 0 4  1.5 0 4  2 0 4  2.5 0 4  3 0 4  3.5 0 4  4 0 4  4.5 0 4  5 0 4  5.5 0 4  6 0 4  6.5 0 4  7 0 4  7.5 0 4  8 0 4  8.5 0 4  9 0 4  9.5 0 4  10 0 4  10.5 0 4  11 0 4  11.5 0 4  12 0 4  12.5 0 4  13 0 4  13.5 0 4  14 0 4  14.5 0 4  15 0 4  15.5 0 4  16 0 4  16.5 0 4  17 0 4  17.5 0 4  18 0 4  18.5 0 4  19 0 4  19.5 0 4  20 0 4  20.5 0 4  21 0 4  21.5 0 4  22 0 4  22.5 0 4  23 0 4  23.5 0 4  24 0 4  24.5 0 4  25 0 4  25.5 0 4  26 0 4  26.5 0 4  27 0 4  27.5 0 4  28 0 4  28.5 0 4  29 0 4  29.5 0 4  30 0 4  30.5 0 4  31 0 4  31.5 0 4  32 0 4  32.5 0 4  33 0 4  33.5 0 4  34 0 4  34.5 0 4  35 0 4  35.5 0 4  36 0 4  36.5 0 4  37 0 4  37.5 0 4  38 0 4  38.5 0 4  39 0 4  39.5 0 4  40 0 4  40.5 0 4  41 0 4  41.5 0 4  42 0 4  42.5 0 4  43 0 4  43.5 0 4  44 0 4  44.5 0 4  45 0 4  45.5 0 4  46 0 4  46.5 0 4  47 0 4  47.5 0 4  48 0 4  48.5 0 4  49 0 4  49.5 0 4  50 1.04967844 3.90746784  50 2.0669806 3.632725  50 3.02052855 3.18424606  50 3.88091111 2.5758636  50 4.62159061 1.82634306  50 5.21972132 0.958802283  49.5 5.65685415 0  49 5.65685415 0  48.5 5.65685415 0  48 5.65685415 0  47.5 5.65685415 0  47 5.65685415 0  46.5 5.65685415 0  46 5.65685415 0  45.5 5.65685415 0  45 5.65685415 0  44.5 5.65685415 0  44 5.65685415 0  43.5 5.65685415 0  43 5.65685415 0  42.5 5.65685415 0  42 5.65685415 0  41.5 5.65685415 0  41 5.65685415 0  40.5 5.65685415 0  40 5.65685415 0  39.5 5.65685415 0  39 5.65685415 0  38.5 5.65685415 0  38 5.65685415 0  37.5 5.65685415 0  37 5.65685415 0  36.5 5.65685415 0  36 5.65685415 0  35.5 5.65685415 0  35 5.65685415 0  34.5 5.65685415 0  34 5.65685415 0  33.5 5.65685415 0  33 5.65685415 0  32.5 5.65685415 0  32 5.65685415 0  31.5 5.65685415 0  31 5.65685415 0  30.5 5.65685415 0  30 5.65685415 0  29.5 5.65685415 0  29 5.65685415 0  28.5 5.65685415 0  28 5.65685415 0  27.5 5.65685415 0  27 5.65685415 0  26.5 5.65685415 0  26 5.65685415 0  25.5 5.65685415 0  25 5.65685415 0  24.5 5.65685415 0  24 5.65685415 0  23.5 5.65685415 0  23 5.65685415 0  22.5 5.65685415 0  22 5.65685415 0  21.5 5.65685415 0  21 5.65685415 0  20.5 5.65685415 0  20 5.65685415 0  19.5 5.65685415 0  19 5.65685415 0  18.5 5.65685415 0  18 5.65685415 0  17.5 5.65685415 0  17 5.65685415 0  16.5 5.65685415 0  16 5.65685415 0  15.5 5.65685415 0  15 5.65685415 0  14.5 5.65685415 0  14 5.65685415 0  13.5 5.65685415 0  13 5.65685415 0  12.5 5.65685415 0  12 5.65685415 0  11.5 5.65685415 0  11 5.65685415 0  10.5 5.65685415 0  10 5.65685415 0  9.5 5.65685415 0  9 5.65685415 0  8.5 5.65685415 0  8 5.65685415 0  7.5 5.65685415 0  7 5.65685415 0  6.5 5.65685415 0  6 5.65685415 0  5.5 5.65685415 0  5 5.65685415 0  4.5 5.65685415 0  4 5.65685415 0  3.5 5.65685415 0  3 5.65685415 0  2.5 5.65685415 0  2 5.65685415 0  1.5 5.65685415 0  1 5.65685415 0  0.5 5.65685415 0  50 4.71404505 0  50 3.77123618 0  50 2.82842708 0  50 1.88561809 0  50 0.942809045 0  49.5 0 0  49 0 0  48.5 0 0  48 0 0  47.5 0 0  47 0 0  46.5 0 0  46 0 0  45.5 0 0  45 0 0  44.5 0 0  44 0 0  43.5 0 0  43 0 0  42.5 0 0  42 0 0  41.5 0 0  41 0 0  40.5 0 0  40 0 0  39.5 0 0  39 0 0  38.5 0 0  38 0 0  37.5 0 0  37 0 0  36.5 0 0  36 0 0  35.5 0 0  35 0 0  34.5 0 0  34 0 0  33.5 0 0  33 0 0  32.5 0 0  32 0 0  31.5 0 0  31 0 0  30.5 0 0  30 0 0  29.5 0 0  29 0 0  28.5 0 0  28 0 0  27.5 0 0  27 0 0  26.5 0 0  26 0 0  25.5 0 0  25 0 0  24.5 0 0  24 0 0  23.5 0 0  23 0 0  22.5 0 0  22 0 0  21.5 0 0  21 0 0  20.5 0 0  20 0 0  19.5 0 0  19 0 0  18.5 0 0  18 0 0  17.5 0 0  17 0 0  16.5 0 0  16 0 0  15.5 0 0  15 0 0  14.5 0 0  14 0 0  13.5 0 0  13 0 0  12.5 0 0  12 0 0  11.5 0 0  11 0 0  10.5 0 0  10 0 0  9.5 0 0  9 0 0  8.5 0 0  8 0 0  7.5 0 0  7 0 0  6.5 0 0  6 0 0  5.5 0 0  5 0 0  4.5 0 0  4 0 0  3.5 0 0  3 0 0  2.5 0 0  2 0 0  1.5 0 0  1 0 0  0.5 0 0  50 0 1  50 0 2  50 0 3  0 2.33524275 0.893602192  0 2.87561393 1.93323028  0 4.2367816 0.876864135  0 2.00050235 2.65534091  0 0.981494486 2.34323239  0 3.78543234 1.61830366  0 3.30545568 0.887000024  0 0.812916458 1.58408713  0 1.71948838 1.71268857  0 1.28267908 0.8650629520000001  0 1.21973121 3.10775328  0.5 5.21972132 0.958802223  0.5 4.62159061 1.82634306  0.5 3.88091111 2.5758636  0.5 3.02052855 3.18424606  0.5 2.0669806 3.632725  0.5 1.04967844 3.90746784  1 5.21972132 0.958802223  1 4.62159061 1.82634306  1 3.88091111 2.5758636  1 3.02052855 3.18424606  1 2.0669806 3.632725  1 1.04967844 3.90746784  1.5 5.21972132 0.958802223  1.5 4.62159061 1.82634306  1.5 3.88091111 2.5758636  1.5 3.02052855 3.18424606  1.5 2.0669806 3.632725  1.5 1.04967844 3.90746784  2 5.21972132 0.958802223  2 4.62159061 1.82634306  2 3.88091111 2.5758636  2 3.02052855 3.18424606  2 2.0669806 3.632725  2 1.04967844 3.90746784  2.5 5.21972132 0.958802223  2.5 4.62159061 1.82634306  2.5 3.88091111 2.5758636  2.5 3.02052855 3.18424606  2.5 2.0669806 3.632725  2.5 1.04967844 3.90746784  3 5.21972132 0.958802223  3 4.62159061 1.82634306  3 3.88091111 2.5758636  3 3.02052855 3.18424606  3 2.0669806 3.632725  3 1.04967844 3.90746784  3.5 5.21972132 0.958802223  3.5 4.62159061 1.82634306  3.5 3.88091111 2.5758636  3.5 3.02052855 3.18424606  3.5 2.0669806 3.632725  3.5 1.04967844 3.90746784  4 5.21972132 0.958802223  4 4.62159061 1.82634306  4 3.88091111 2.5758636  4 3.02052855 3.18424606  4 2.0669806 3.632725  4 1.04967844 3.90746784  4.5 5.21972132 0.958802223  4.5 4.62159061 1.82634306  4.5 3.88091111 2.5758636  4.5 3.02052855 3.18424606  4.5 2.0669806 3.632725  4.5 1.04967844 3.90746784  5 5.21972132 0.958802223  5 4.62159061 1.82634306  5 3.88091111 2.5758636  5 3.02052855 3.18424606  5 2.0669806 3.632725  5 1.04967844 3.90746784  5.5 5.21972132 0.958802223  5.5 4.62159061 1.82634306  5.5 3.88091111 2.5758636  5.5 3.02052855 3.18424606  5.5 2.0669806 3.632725  5.5 1.04967844 3.90746784  6 5.21972132 0.958802223  6 4.62159061 1.82634306  6 3.88091111 2.5758636  6 3.02052855 3.18424606  6 2.0669806 3.632725  6 1.04967844 3.90746784  6.5 5.21972132 0.958802223  6.5 4.62159061 1.82634306  6.5 3.88091111 2.5758636  6.5 3.02052855 3.18424606  6.5 2.0669806 3.632725  6.5 1.04967844 3.90746784  7 5.21972132 0.958802223  7 4.62159061 1.82634306  7 3.88091111 2.5758636  7 3.02052855 3.18424606  7 2.0669806 3.632725  7 1.04967844 3.90746784  7.5 5.21972132 0.958802223  7.5 4.62159061 1.82634306  7.5 3.88091111 2.5758636  7.5 3.02052855 3.18424606  7.5 2.0669806 3.632725  7.5 1.04967844 3.90746784  8 5.21972132 0.958802223  8 4.62159061 1.82634306  8 3.88091111 2.5758636  8 3.02052855 3.18424606  8 2.0669806 3.632725  8 1.04967844 3.90746784  8.5 5.21972132 0.958802223  8.5 4.62159061 1.82634306  8.5 3.88091111 2.5758636  8.5 3.02052855 3.18424606  8.5 2.0669806 3.632725  8.5 1.04967844 3.90746784  9 5.21972132 0.958802223  9 4.62159061 1.82634306  9 3.88091111 2.5758636  9 3.02052855 3.18424606  9 2.0669806 3.632725  9 1.04967844 3.90746784  9.5 5.21972132 0.958802223  9.5 4.62159061 1.82634306  9.5 3.88091111 2.5758636  9.5 3.02052855 3.18424606  9.5 2.0669806 3.632725  9.5 1.04967844 3.90746784  10 5.21972132 0.958802223  10 4.62159061 1.82634306  10 3.88091111 2.5758636  10 3.02052855 3.18424606  10 2.0669806 3.632725  10 1.04967844 3.90746784  10.5 5.21972132 0.958802223  10.5 4.62159061 1.82634306  10.5 3.88091111 2.5758636  10.5 3.02052855 3.18424606  10.5 2.0669806 3.632725  10.5 1.04967844 3.90746784  11 5.21972132 0.958802223  11 4.62159061 1.82634306  11 3.88091111 2.5758636  11 3.02052855 3.18424606  11 2.0669806 3.632725  11 1.04967844 3.90746784  11.5 5.21972132 0.958802223  11.5 4.62159061 1.82634306  11.5 3.88091111 2.5758636  11.5 3.02052855 3.18424606  11.5 2.0669806 3.632725  11.5 1.04967844 3.90746784  12 5.21972132 0.958802223  12 4.62159061 1.82634306  12 3.88091111 2.5758636  12 3.02052855 3.18424606  12 2.0669806 3.632725  12 1.04967844 3.90746784  12.5 5.21972132 0.958802223  12.5 4.62159061 1.82634306  12.5 3.88091111 2.5758636  12.5 3.02052855 3.18424606  12.5 2.0669806 3.632725  12.5 1.04967844 3.90746784  13 5.21972132 0.958802223  13 4.62159061 1.82634306  13 3.88091111 2.5758636  13 3.02052855 3.18424606  13 2.0669806 3.632725  13 1.04967844 3.90746784  13.5 5.21972132 0.958802223  13.5 4.62159061 1.82634306  13.5 3.88091111 2.5758636  13.5 3.02052855 3.18424606  13.5 2.0669806 3.632725  13.5 1.04967844 3.90746784  14 5.21972132 0.958802223  14 4.62159061 1.82634306  14 3.88091111 2.5758636  14 3.02052855 3.18424606  14 2.0669806 3.632725  14 1.04967844 3.90746784  14.5 5.21972132 0.958802223  14.5 4.62159061 1.82634306  14.5 3.88091111 2.5758636  14.5 3.02052855 3.18424606  14.5 2.0669806 3.632725  14.5 1.04967844 3.90746784  15 5.21972132 0.958802223  15 4.62159061 1.82634306  15 3.88091111 2.5758636  15 3.02052855 3.18424606  15 2.0669806 3.632725  15 1.04967844 3.90746784  15.5 5.21972132 0.958802223  15.5 4.62159061 1.82634306  15.5 3.88091111 2.5758636  15.5 3.02052855 3.18424606  15.5 2.0669806 3.632725  15.5 1.04967844 3.90746784  16 5.21972132 0.958802223  16 4.62159061 1.82634306  16 3.88091111 2.5758636  16 3.02052855 3.18424606  16 2.0669806 3.632725  16 1.04967844 3.90746784  16.5 5.21972132 0.958802223  16.5 4.62159061 1.82634306  16.5 3.88091111 2.5758636  16.5 3.02052855 3.18424606  16.5 2.0669806 3.632725  16.5 1.04967844 3.90746784  17 5.21972132 0.958802223  17 4.62159061 1.82634306  17 3.88091111 2.5758636  17 3.02052855 3.18424606  17 2.0669806 3.632725  17 1.04967844 3.90746784  17.5 5.21972132 0.958802223  17.5 4.62159061 1.82634306  17.5 3.88091111 2.5758636  17.5 3.02052855 3.18424606  17.
[...]
<PointData  Vectors="f_261141-0"> 
<DataArray  type="Float64"  Name="f_261141-0"  NumberOfComponents="3" format="ascii">0.0000000000000000e+00 0.0000000000000000e+00 0.0000000000000000e+00  0.0000000000000000e+00 0.0000000000000000e+00 7.0009424478920679e-01  0.0000000000000000e+00 1.0367517309798551e+00 0.0000000000000000e+00  8.9725759615376859e+00 0.0000000000000000e+00 2.5297406551413637e+00  9.4622591396809064e+00 9.5548057527879082e-01 2.0240151928823904e+00  9.3316330428463399e+00 0.0000000000000000e+00 1.9785796095416675e+00  0.0000000000000000e+00 0.0000000000000000e+00 1.5944632322368898e-01  0.0000000000000000e+00 0.0000000000000000e+00 3.5804954867495753e-01  0.0000000000000000e+00 0.0000000000000000e+00 5.4713755231977312e-01  0.0000000000000000e+00 1.8184689114386704e-01 6.7501097360187945e-01  0.0000000000000000e+00 3.5117854090708689e-01 6.3810955870352892e-01  0.0000000000000000e+00 5.3013464603422444e-01 5.9436026733111380e-01  0.0000000000000000e+00 7.0695607014547635e-01 4.9587582214329723e-01  0.0000000000000000e+00 8.7369749542473985e-01 3.3151356903624607e-01  0.0000000000000000e+00 9.9721882433173936e-01 1.7656565643286615e-01  0.0000000000000000e+00 8.8288384109018858e-01 0.0000000000000000e+00  0.0000000000000000e+00 7.1087140619282918e-01 0.0000000000000000e+00  0.0000000000000000e+00 5.0896851896914574e-01 0.0000000000000000e+00  0.0000000000000000e+00 3.2237046273453723e-01 0.0000000000000000e+00  0.0000000000000000e+00 1.6131643440369259e-01 0.0000000000000000e+00  9.2153789829107047e-02 0.0000000000000000e+00 7.0446479027995745e-01  1.8038716072714905e-01 0.0000000000000000e+00 7.0114879832197141e-01  2.7077136576914296e-01 0.0000000000000000e+00 7.0509471442269200e-01  3.6385253783838450e-01 0.0000000000000000e+00 7.0753749064011695e-01  4.5235961461692170e-01 0.0000000000000000e+00 7.1290795108540894e-01  5.4940839828150778e-01 0.0000000000000000e+00 7.0955374753124512e-01  6.3806044858736288e-01 0.0000000000000000e+00 7.1560651562252875e-01  7.3170731416236390e-01 0.0000000000000000e+00 7.0966291205641996e-01  8.2341981605662129e-01 0.0000000000000000e+00 7.1619027494584264e-01  9.1219175395282692e-01 0.0000000000000000e+00 7.2187317935238460e-01  1.0010296572849589e+00 0.0000000000000000e+00 7.3055827974663534e-01  1.0922414933255389e+00 0.0000000000000000e+00 7.3481020401053654e-01  1.1833818344775355e+00 0.0000000000000000e+00 7.4627895939974376e-01  1.2867343431140366e+00 0.0000000000000000e+00 7.4057716889243996e-01  1.3780964938774385e+00 0.0000000000000000e+00 7.4929861694682842e-01  1.4727474820276623e+00 0.0000000000000000e+00 7.4813728080506148e-01  1.5641519553374892e+00 0.0000000000000000e+00 7.5045371930567717e-01  1.6546636692920309e+00 0.0000000000000000e+00 7.5624815251602584e-01  1.7458889030433582e+00 0.0000000000000000e+00 7.6383795883395034e-01  1.8346445625292174e+00 0.0000000000000000e+00 7.7551322723425098e-01  1.9229020033786437e+00 0.0000000000000000e+00 7.9166995929972050e-01  2.0190838426350006e+00 0.0000000000000000e+00 7.9496594647177721e-01  2.1125514080318522e+00 0.0000000000000000e+00 8.0370428706949648e-01  2.2056585569791300e+00 0.0000000000000000e+00 8.0439809043372001e-01  2.2944398219555744e+00 0.0000000000000000e+00 8.2168172990120669e-01  2.3861687242290484e+00 0.0000000000000000e+00 8.2834662276145488e-01  2.4792695959941877e+00 0.0000000000000000e+00 8.3582288986456954e-01  2.5686581954026559e+00 0.0000000000000000e+00 8.5342997383910724e-01  2.6590944939808980e+00 0.0000000000000000e+00 8.6028119992613183e-01  2.7515335761565689e+00 0.0000000000000000e+00 8.6713512035162132e-01  2.8380524067363462e+00 0.0000000000000000e+00 8.8883765704236128e-01  2.9327066649502398e+00 0.0000000000000000e+00 8.9689255411164681e-01  3.0217410732151704e+00 0.0000000000000000e+00 9.1130929176354647e-01  3.1166725936407738e+00 0.0000000000000000e+00 9.1234648785496175e-01  3.2101234915659855e+00 0.0000000000000000e+00 9.2079729482897621e-01  3.3036604831826706e+00 0.0000000000000000e+00 9.3403983126656698e-01  3.3935345927800324e+00 0.0000000000000000e+00 9.4987555626502373e-01  3.4813387951284800e+00 0.0000000000000000e+00 9.7045578478902828e-01  3.5759445801578562e+00 0.0000000000000000e+00 9.7833748574504542e-01  3.6643794809578938e+00 0.0000000000000000e+00 1.0009235816648487e+00  3.7547682029697649e+00 0.0000000000000000e+00 1.0233492398635673e+00  3.8484426040155806e+00 0.0000000000000000e+00 1.0335701070851513e+00  3.9341411872101544e+00 0.0000000000000000e+00 1.0512506623097067e+00  4.0310916627064204e+00 0.0000000000000000e+00 1.0515667258864565e+00  4.1208074949988420e+00 0.0000000000000000e+00 1.0689749458922202e+00  4.2116895915801358e+00 0.0000000000000000e+00 1.0906101746146015e+00  4.3006911492465463e+00 0.0000000000000000e+00 1.1176249045302626e+00  4.3910362204538655e+00 0.0000000000000000e+00 1.1397994646170684e+00  4.4831143279569243e+00 0.0000000000000000e+00 1.1603968588265114e+00  4.5759777383722442e+00 0.0000000000000000e+00 1.1767808810002487e+00  4.6705298336267642e+00 0.0000000000000000e+00 1.1946789092305674e+00  4.7562618119296500e+00 0.0000000000000000e+00 1.2264951804043505e+00  4.8506785317579686e+00 0.0000000000000000e+00 1.2402950854138906e+00  4.9364109291303562e+00 0.0000000000000000e+00 1.2761473025418746e+00  5.0298939113225236e+00 0.0000000000000000e+00 1.2884149638518241e+00  5.1256021560000802e+00 0.0000000000000000e+00 1.3035901071238898e+00  5.2185230877484603e+00 0.0000000000000000e+00 1.3239228333020892e+00  5.3090220227346858e+00 0.0000000000000000e+00 1.3538892381273944e+00  5.3974245199152282e+00 0.0000000000000000e+00 1.3870176257990028e+00  5.4884702912320256e+00 0.0000000000000000e+00 1.4059659893311907e+00  5.5814968306877084e+00 0.0000000000000000e+00 1.4145470415581152e+00  5.6697515208426070e+00 0.0000000000000000e+00 1.4499695966779231e+00  5.7620117408975942e+00 0.0000000000000000e+00 1.4655725414818259e+00  5.8569977571945957e+00 0.0000000000000000e+00 1.4859449840513124e+00  5.9431714267366420e+00 0.0000000000000000e+00 1.5253605476326775e+00  6.0356473063069114e+00 0.0000000000000000e+00 1.5541449044409772e+00  6.1328096482457166e+00 0.0000000000000000e+00 1.5818366960596750e+00  6.2195032908391905e+00 0.0000000000000000e+00 1.6107381028066963e+00  6.3075799325431001e+00 0.0000000000000000e+00 1.6392369504631343e+00  6.3981535562555250e+00 0.0000000000000000e+00 1.6638708757741643e+00  6.4861435283946838e+00 0.0000000000000000e+00 1.6948290285870500e+00  6.5754694554612492e+00 0.0000000000000000e+00 1.7294162482992177e+00  6.6682900552278097e+00 0.0000000000000000e+00 1.7496895890210902e+00  6.7587072416098657e+00 0.0000000000000000e+00 1.7820844415790851e+00  6.8566961236910009e+00 0.0000000000000000e+00 1.8052737797071443e+00  6.9443619608774130e+00 0.0000000000000000e+00 1.8444911532812598e+00  7.0366793842111068e+00 0.0000000000000000e+00 1.8771435317513478e+00  7.1242860669802015e+00 0.0000000000000000e+00 1.9090902257001787e+00  7.2185286525610328e+00 0.0000000000000000e+00 1.9345945211703430e+00  7.3068240094670127e+00 0.0000000000000000e+00 1.9686836653452908e+00  7.3987638897095866e+00 0.0000000000000000e+00 2.0051036781729015e+00  7.4941140015345464e+00 0.0000000000000000e+00 2.0282515453859205e+00  7.5896057424571124e+00 0.0000000000000000e+00 2.0606681229264461e+00  7.6772368475859549e+00 0.0000000000000000e+00 2.1035054278880945e+00  7.7712960041569863e+00 0.0000000000000000e+00 2.1262386564766413e+00  7.8585098662571120e+00 0.0000000000000000e+00 2.1655589684238761e+00  7.9510664640665771e+00 0.0000000000000000e+00 2.1988589854842959e+00  8.0421726432934690e+00 0.0000000000000000e+00 2.2246102115132471e+00  8.1377116564714811e+00 0.0000000000000000e+00 2.2448961168660535e+00  8.2255078793041108e+00 0.0000000000000000e+00 2.2788422461916076e+00  8.3177057395855929e+00 0.0000000000000000e+00 2.2966346609629977e+00  8.4061310768142228e+00 0.0000000000000000e+00 2.3213564314126591e+00  8.4930782737126389e+00 0.0000000000000000e+00 2.3428147736733007e+00  8.5757126261354450e+00 0.0000000000000000e+00 2.3660541513839357e+00  8.6532136416300993e+00 0.0000000000000000e+00 2.3852349358981755e+00  8.7260659593270304e+00 0.0000000000000000e+00 2.4046951806143957e+00  8.7954468132145074e+00 0.0000000000000000e+00 2.4315202536174807e+00  8.8613179043433874e+00 0.0000000000000000e+00 2.4534063982144598e+00  8.9191874823525019e+00 0.0000000000000000e+00 2.4832222853952697e+00  8.9898546067399216e+00 1.1375009287077543e-01 2.5182961899788587e+00  9.0410362082902083e+00 2.4259205175568987e-01 2.5066359112593202e+00  9.1019984653304125e+00 3.8112019281388637e-01 2.4853219261504274e+00  9.1760210815817107e+00 5.3828956771902248e-01 2.4509998610082442e+00  9.3062300623554606e+00 7.2119364350716886e-01 2.3543922506198789e+00  9.3928403062139143e+00 8.6036739179463717e-01 2.1880801764909643e+00  9.3787706317191937e+00 9.6750757418930355e-01 1.9846637717042319e+00  9.2899303523863050e+00 9.8293817746718271e-01 1.9413668985721892e+00  9.2000957760036410e+00 9.9524193147708173e-01 1.8998750705759924e+00  9.1043270919962662e+00 1.0008332875686101e+00 1.8647388640511862e+00  9.0140758652108879e+00 1.0087244427009969e+00 1.8222360123633246e+00  8.9219090785979169e+00 1.0237378608908243e+00 1.7710802303919446e+00  8.8274354658144674e+00 1.0230545626904135e+00 1.7231137867265340e+00  8.7274737603654007e+00 1.0271645447853004e+00 1.6835249754518060e+00  8.6298602468937702e+00 1.0350586319244452e+00 1.6430820172210390e+00  8.5284690567366397e+00 1.0381868207459970e+00 1.6062249709944987e+00  8.4295539212661694e+00 1.0392667148298906e+00 1.5654733272638561e+00  8.3318001330748448e+00 1.0476136451969824e+00 1.5240054332456638e+00  8.2350885320323748e+00 1.0488936586562341e+00 1.4935327836493646e+00  8.1381222897289600e+00 1.0467555881015100e+00 1.4580203168570456e+00  8.0440904317813740e+00 1.0461710477422852e+00 1.4097291390623752e+00  7.9437112267149130e+00 1.0374956586633890e+00 1.3744996816360826e+00  7.8536684018347893e+00 1.0403534541190167e+00 1.3541406864216743e+00  7.7600972384574511e+00 1.0521127083740427e+00 1.3299997147259091e+00  7.6696876967696364e+00 1.0589286090881820e+00 1.2988550312857217e+00  7.5767431323722017e+00 1.0623471983361790e+00 1.2710853162275020e+00  7.4815228228235524e+00 1.0666763223859519e+00 1.2450851494044497e+00  7.3841119122966532e+00 1.0612953194525852e+00 1.2225134155888164e+00  7.2877397188788313e+00 1.0672810935786685e+00 1.1880609606784014e+00  7.1922054000916491e+00 1.0526697704815922e+00 1.1569857480957377e+00  7.1001242468541497e+00 1.0528750834860092e+00 1.1168056759756366e+00  7.0066075588946228e+00 1.0480827047894721e+00 1.0828351931544606e+00  6.9107190405228964e+00 1.0478215462441653e+00 1.0491025777814125e+00  6.8161790773745539e+00 1.0479688794215627e+00 1.0121290792746014e+00  6.7232129572347237e+00 1.0478744172869296e+00 9.7969683735838120e-01  6.6301870068934594e+00 1.0450165642258484e+00 9.5099889555170503e-01  6.5343833439775247e+00 1.0430061077781847e+00 9.2103348281195996e-01  6.4399337368221730e+00 1.0445873306979083e+00 8.8948965784659240e-01  6.3452823671318317e+00 1.0381287717858414e+00 8.5838938186633573e-01  6.2504476102744304e+00 1.0339879245452934e+00 8.2466475259566618e-01  6.1567713486697793e+00 1.0335191046541441e+00 7.9653697648589605e-01  6.0632868909593576e+00 1.0325159693351178e+00 7.6668564756657753e-01  5.9681088488465024e+00 1.0372429280120072e+00 7.3679985403961623e-01  5.8709082311758491e+00 1.0379884438726781e+00 7.1176157103885573e-01  5.7750826184431263e+00 1.0399088970743284e+00 6.8167777877601587e-01  5.6814903921040543e+00 1.0309898898456045e+00 6.5162204629007348e-01  5.5855370388347199e+00 1.0267146238196208e+00 6.2276026747108737e-01  5.4912535684410146e+00 1.0283121945483065e+00 5.9684149549006438e-01  5.3980537540891653e+00 1.0186246826084657e+00 5.8000148771870141e-01  5.3045613488361507e+00 1.0198222539558319e+00 5.5904290262019252e-01  5.2136440880126154e+00 1.0283384823116650e+00 5.3475089641398554e-01  5.1213893067632164e+00 1.0293185995825740e+00 5.1888940299375796e-01  5.0297940711382356e+00 1.0367321164346328e+00 4.9947180085042214e-01  4.9353530331522597e+00 1.0380971302954165e+00 4.7994983113515549e-01  4.8385694481302357e+00 1.0319988582730357e+00 4.6536852591662664e-01  4.7400965341288677e+00 1.0382241307864093e+00 4.4851337790108742e-01  4.6438074333362138e+00 1.0360824153254868e+00 4.2840424660587512e-01  4.5479837369270601e+00 1.0453054121338416e+00 3.9848517462526734e-01  4.4532963820875384e+00 1.0389108978046642e+00 3.8303663162225821e-01  4.3543493126531612e+00 1.0410611989244887e+00 3.5150017879835188e-01  4.2623215470410551e+00 1.0392872902561865e+00 3.2978877986194038e-01  4.1647611932411461e+00 1.0372893542544408e+00 3.2019846217773584e-01  4.0678083579805460e+00 1.0358113146961681e+00 3.1474339408902552e-01  3.9740096975161352e+00 1.0442100842070980e+00 2.9687643145978282e-01  3.8798687515424395e+00 1.0456097523037817e+00 2.8226984973553948e-01  3.7879463208678441e+00 1.0452980347345835e+00 2.6567967726740693e-01  3.6909515782864535e+00 1.0506771401189963e+00 2.4734760386644852e-01  3.5959826969193127e+00 1.0410629603870067e+00 2.3234314835855413e-01  3.4976227335487460e+00 1.0412810672510076e+00 2.2040850226556821e-01  3.4054960216542547e+00 1.0454418691375349e+00 1.9896158740105202e-01  3.3097315538943239e+00 1.0402167185631095e+00 1.9237093834746913e-01  3.2133179084392460e+00 1.0269903157634814e+00 1.8972878112930502e-01  3.1204967887034436e+00 1.0350736580971625e+00 1.6710401545552611e-01  3.0265502762549903e+00 1.0345262897609320e+00 1.4953255721275208e-01  2.9346056252087362e+00 1.0297418709390973e+00 1.3817703853128724e-01  2.8416564354629648e+00 1.0331044248921721e+00 1.2647814119535467e-01  2.7457538440030151e+00 1.0336147102007671e+00 1.2089294641227989e-01  2.6496867540813613e+00 1.0375388175128593e+00 1.1097464307046172e-01  2.5553573937591052e+00 1.0415808331081646e+00 9.8198230634112649e-02  2.4591133219714756e+00 1.0371283717053601e+00 9.2372464137494767e-02  2.3633789681360939e+00 1.0384208000064048e+00 8.3185102967913524e-02  2.2681621918052377e+00 1.0338711204873361e+00 7.7751408386523863e-02  2.1734484708470618e+00 1.0400320355905204e+00 6.8416587306426149e-02  2.0829067879406216e+00 1.0453768527422902e+00 5.9717591585204989e-02  1.9860301116403252e+00 1.0487208645761223e+00 5.3937593200023289e-02  1.8888077942125341e+00 1.0398311699197942e+00 5.7814503621924307e-02  1.7958819566495960e+00 1.0496608224284412e+00 4.8037656627022744e-02  1.6996109592369066e+00 1.0491619354036381e+00 4.5061095187129689e-02  1.6058529128580687e+00 1.0371571930978500e+00 4.5111715211728888e-02  1.5114248799023329e+00 1.0429524409809856e+00 3.3447438606685372e-02  1.4198014597288824e+00 1.0430206672229581e+00 2.4180475920000846e-02  1.3268008274607905e+00 1.0441580508199810e+00 2.1701679616739727e-02  1.2312345602665100e+00 1.0392382361733665e+00 2.7579131288843269e-02  1.1355260591995191e+00 1.0503968789983296e+00 1.9270529537545718e-02  1.0397306429508495e+00 1.0497297249817379e+00 1.3827134428136399e-02  9.4348464985222125e-01 1.0535813521483528e+00 1.1234317994804543e-02  8.4828476059638280e-01 1.0493761883335944e+00 3.1401626429849554e-03  7.5499710115962493e-01 1.0496660407774769e+00 1.3774783710261576e-03  6.5971823712939470e-01 1.0545140497486520e+00 -1.2436044083260641e-03  5.6213551274680440e-01 1.0526171162336107e+00 7.0235684921891080e-03  4.6919684714795440e-01 1.0497335853161716e+00 1.0362990389269558e-02  3.7521939414033245e-01 1.0550449480337953e+00 5.2004133242393629e-03  2.7941699091561462e-01 1.0446616096937260e+00 4.2383392624356425e-03  1.8693088464528310e-01 1.0414878744772345e+00 0.0000000000000000e+00  9.2509708230397045e-02 1.0340227687315033e+00 0.0000000000000000e+00  9.4377189490216757e+00 7.7976919239082132e-01 2.0147105994242569e+00  9.4129969871754806e+00 6.1388087631664723e-01 2.0006347397834472e+00  9.3884540700779731e+00 4.5411958497940746e-01 1.9838680936663453e+00  9.3746362316227678e+00 2.9829029279277836e-01 1.9936790012972976e+00  9.3472586994913716e+00 1.3690010226826868e-01 1.9751162795199741e+00  9.2502266128482482e+00 0.0000000000000000e+00 1.9236308878031547e+00  9.1728608978859416e+00 0.0000000000000000e+00 1.8813707316233372e+00  9.0910502087107847e+00 0.0000000000000000e+00 1.8335957165048951e+00  9.0068521174371625e+00 0.0000000000000000e+00 1.7902614181970746e+00  8.9170930817900995e+00 0.0000000000000000e+00 1.7622783288493766e+00  8.8278149101554622e+00 0.0000000000000000e+00 1.7250006579276524e+00  8.7384280700127963e+00 0.0000000000000000e+00 1.6899658963289488e+00  8.6459081763582368e+00 0.0000000000000000e+00 1.6592976141366873e+00  8.5569238531903942e+00 0.0000000000000000e+00 1.6245534535277903e+00  8.4659795533020201e+00 0.0000000000000000e+00 1.5908868254746384e+00  8.3752825031321070e+00 0.0000000000000000e+00 1.5636791094027351e+00  8.2868266121192100e+00 0.0000000000000000e+00 1.5292920251727824e+00  8.1970922673179665e+00 0.0000000000000000e+00 1.5032953567548852e+00  8.1019708797284871e+00 0.0000000000000000e+00 1.4780528920403622e+00  8.0155421920288799e+00 0.0000000000000000e+00 1.4415743232013176e+00  7.9274483870353203e+00 0.0000000000000000e+00 1.4039766258375819e+00  7.8362418769116280e+00 0.0000000000000000e+00 1.3745484309270759e+00  7.7463108326494732e+00 0.0000000000000000e+00 1.3400277221894477e+00  7.6555490434241600e+00 0.0000000000000000e+00 1.2997769832279138e+00  7.5643738981610840e+00 0.0000000000000000e+00 1.2684165792907911e+00  7.4710148825409117e+00 0.0000000000000000e+00 1.2366779892891604e+00  7.3739547802297833e+00 0.0000000000000000e+00 1.2195343922919537e+00  7.2810297243790920e+00 0.0000000000000000e+00 1.1888257177857082e+00  7.1875317855066614e+00 0.0000000000000000e+00 1.1571511030695238e+00  7.0943510384811219e+00 0.0000000000000000e+00 1.1287641709949261e+00  6.9992550679927268e+00 0.0000000000000000e+00 1.1040689247166202e+00  6.9052270808717369e+00 0.0000000000000000e+00 1.0667467030671192e+00  6.8095023338022767e+00 0.0000000000000000e+00 1.0371873671738785e+00  6.7156431691717664e+00 0.0000000000000000e+00 1.0011943626197903e+00  6.6192764897076701e+00 0.0000000000000000e+00 9.7610033571881960e-01  6.5292248568911262e+00 0.0000000000000000e+00 9.4376065453468139e-01  6.4384092725477320e+00 0.0000000000000000e+00 9.1623268663871826e-01  6.3471112499768010e+00 0.0000000000000000e+00 8.8786486343800486e-01  6.2516472311486408e+00 0.0000000000000000e+00 8.5832348799910985e-01  6.1542767258115711e+00 0.0000000000000000e+00 8.2826802759646367e-01  6.0593996148018299e+00 0.0000000000000000e+00 8.0161756688436603e-01  5.9637343513611958e+00 0.0000000000000000e+00 7.7404388387959999e-01  5.8677964187902001e+00 0.0000000000000000e+00 7.5410241865354399e-01  5.7717434703676043e+00 0.0000000000000000e+00 7.3592149823400110e-01  5.6799876792263726e+00 0.0000000000000000e+00 7.1433395113103859e-01  5.5866400060233019e+00 0.0000000000000000e+00 6.8995649178057994e-01  5.4946506864988898e+00 0.0000000000000000e+00 6.6695624330736447e-01  5.3980734641327732e+00 0.0000000000000000e+00 6.4266677745999135e-01  5.3078751116785110e+00 0.0000000000000000e+00 6.1312283689609193e-01  5.2146546265279730e+00 0.0000000000000000e+00 5.8712989168858709e-01  5.1181712052649697e+00 0.0000000000000000e+00 5.7138858000599657e-01  5.0218952286414043e+00 0.0000000000000000e+00 5.4942005443743569e-01  4.9307060290228799e+00 0.0000000000000000e+00 5.2584137040500400e-01  4.8298107413594575e+00 0.0000000000000000e+00 5.0756546606404185e-01  4.7365247815463762e+00 0.0000000000000000e+00 4.8259624035793963e-01  4.6430531352869124e+00 0.0000000000000000e+00 4.5262402211950259e-01  4.5490739376933247e+00 0.0000000000000000e+00 4.3471767078912477e-01  4.4552455675786700e+00 0.0000000000000000e+00 4.1288593595981626e-01  4.3593438781769978e+00 0.0000000000000000e+00 3.9950621388891772e-01  4.2592786147170649e+00 0.0000000000000000e+00 3.8156514188938839e-01 