<?xml version="1.0"?>
<VTKFile type="UnstructuredGrid"  version="0.1"  >
<UnstructuredGrid>
<Piece  NumberOfPoints="3069" NumberOfCells="12882">
<Points>
<DataArray  type="Float64"  NumberOfComponents="3"  format="ascii">0 0 0  0 0 4  0 5.65685415 0  50 0 4  50 5.65685415 0  50 0 0  0 0 1  0 0 2  0 0 3  0 1.04967844 3.90746784  0 2.0669806 3.632725  0 3.02052855 3.18424606  0 3.88091111 2.5758636  0 4.62159061 1.82634306  0 5.21972132 0.958802283  0 4.71404505 0  0 3.77123618 0  0 2.82842708 0  0 1.88561809 0  0 0.942809045 0  0.5 0 4  1 0 4  1.5 0 4  2 0 4  2.5 0 4  3 0 4  3.5 0 4  4 0 4  4.5 0 4  5 0 4  5.5 0 4  6 0 4  6.5 0 4  7 0 4  7.5 0 4  8 0 4  8.5 0 4  9 0 4  9.5 0 4  10 0 4  10.5 0 4  11 0 4  11.5 0 4  12 0 4  12.5 0 4  13 0 4  13.5 0 4  14 0 4  14.5 0 4  15 0 4  15.5 0 4  16 0 4  16.5 0 4  17 0 4  17.5 0 4  18 0 4  18.5 0 4  19 0 4  19.5 0 4  20 0 4  20.5 0 4  21 0 4  21.5 0 4  22 0 4  22.5 0 4  23 0 4  23.5 0 4  24 0 4  24.5 0 4  25 0 4  25.5 0 4  26 0 4  26.5 0 4  27 0 4  27.5 0 4  28 0 4  28.5 0 4  29 0 4  29.5 0 4  30 0 4  30.5 0 4  31 0 4  31.5 0 4  32 0 4  32.5 0 4  33 0 4  33.5 0 4  34 0 4  34.5 0 4  35 0 4  35.5 0 4  36 0 4  36.5 0 4  37 0 4  37.5 0 4  38 0 4  38.5 0 4  39 0 4  39.5 0 4  40 0 4  40.5 0 4  41 0 4  41.5 0 4  42 0 4  42.5 0 4  43 0 4  43.5 0 4  44 0 4  44.5 0 4  45 0 4  45.5 0 4  46 0 4  46.5 0 4  47 0 4  47.5 0 4  48 0 4  48.5 0 4  49 0 4  49.5 0 4  50 1.04967844 3.90746784  50 2.0669806 3.632725  50 3.02052855 3.18424606  50 3.88091111 2.5758636  50 4.62159061 1.82634306  50 5.21972132 0.958802283  49.5 5.65685415 0  49 5.65685415 0  48.5 5.65685415 0  48 5.65685415 0  47.5 5.65685415 0  47 5.65685415 0  46.5 5.65685415 0  46 5.65685415 0  45.5 5.65685415 0  45 5.65685415 0  44.5 5.65685415 0  44 5.65685415 0  43.5 5.65685415 0  43 5.65685415 0  42.5 5.65685415 0  42 5.65685415 0  41.5 5.65685415 0  41 5.65685415 0  40.5 5.65685415 0  40 5.65685415 0  39.5 5.65685415 0  39 5.65685415 0  38.5 5.65685415 0  38 5.65685415 0  37.5 5.65685415 0  37 5.65685415 0  36.5 5.65685415 0  36 5.65685415 0  35.5 5.65685415 0  35 5.65685415 0  34.5 5.65685415 0  34 5.65685415 0  33.5 5.65685415 0  33 5.65685415 0  32.5 5.65685415 0  32 5.65685415 0  31.5 5.65685415 0  31 5.65685415 0  30.5 5.65685415 0  30 5.65685415 0  29.5 5.65685415 0  29 5.65685415 0  28.5 5.65685415 0  28 5.65685415 0  27.5 5.65685415 0  27 5.65685415 0  26.5 5.65685415 0  26 5.65685415 0  25.5 5.65685415 0  25 5.65685415 0  24.5 5.65685415 0  24 5.65685415 0  23.5 5.65685415 0  23 5.65685415 0  22.5 5.65685415 0  22 5.65685415 0  21.5 5.65685415 0  21 5.65685415 0  20.5 5.65685415 0  20 5.65685415 0  19.5 5.65685415 0  19 5.65685415 0  18.5 5.65685415 0  18 5.65685415 0  17.5 5.65685415 0  17 5.65685415 0  16.5 5.65685415 0  16 5.65685415 0  15.5 5.65685415 0  15 5.65685415 0  14.5 5.65685415 0  14 5.65685415 0  13.5 5.65685415 0  13 5.65685415 0  12.5 5.65685415 0  12 5.65685415 0  11.5 5.65685415 0  11 5.65685415 0  10.5 5.65685415 0  10 5.65685415 0  9.5 5.65685415 0  9 5.65685415 0  8.5 5.65685415 0  8 5.65685415 0  7.5 5.65685415 0  7 5.65685415 0  6.5 5.65685415 0  6 5.65685415 0  5.5 5.65685415 0  5 5.65685415 0  4.5 5.65685415 0  4 5.65685415 0  3.5 5.65685415 0  3 5.65685415 0  2.5 5.65685415 0  2 5.65685415 0  1.5 5.65685415 0  1 5.65685415 0  0.5 5.65685415 0  50 4.71404505 0  50 3.77123618 0  50 2.82842708 0  50 1.88561809 0  50 0.942809045 0  49.5 0 0  49 0 0  48.5 0 0  48 0 0  47.5 0 0  47 0 0  46.5 0 0  46 0 0  45.5 0 0  45 0 0  44.5 0 0  44 0 0  43.5 0 0  43 0 0  42.5 0 0  42 0 0  41.5 0 0  41 0 0  40.5 0 0  40 0 0  39.5 0 0  39 0 0  38.5 0 0  38 0 0  37.5 0 0  37 0 0  36.5 0 0  36 0 0  35.5 0 0  35 0 0  34.5 0 0  34 0 0  33.5 0 0  33 0 0  32.5 0 0  32 0 0  31.5 0 0  31 0 0  30.5 0 0  30 0 0  29.5 0 0  29 0 0  28.5 0 0  28 0 0  27.5 0 0  27 0 0  26.5 0 0  26 0 0  25.5 0 0  25 0 0  24.5 0 0  24 0 0  23.5 0 0  23 0 0  22.5 0 0  22 0 0  21.5 0 0  21 0 0  20.5 0 0  20 0 0  19.5 0 0  19 0 0  18.5 0 0  18 0 0  17.5 0 0  17 0 0  16.5 0 0  16 0 0  15.5 0 0  15 0 0  14.5 0 0  14 0 0  13.5 0 0  13 0 0  12.5 0 0  12 0 0  11.5 0 0  11 0 0  10.5 0 0  10 0 0  9.5 0 0  9 0 0  8.5 0 0  8 0 0  7.5 0 0  7 0 0  6.5 0 0  6 0 0  5.5 0 0  5 0 0  4.5 0 0  4 0 0  3.5 0 0  3 0 0  2.5 0 0  2 0 0  1.5 0 0  1 0 0  0.5 0 0  50 0 1  50 0 2  50 0 3  0 2.33524275 0.893602192  0 2.87561393 1.93323028  0 4.2367816 0.876864135  0 2.00050235 2.65534091  0 0.981494486 2.34323239  0 3.78543234 1.61830366  0 3.30545568 0.887000024  0 0.812916458 1.58408713  0 1.71948838 1.71268857  0 1.28267908 0.8650629520000001  0 1.21973121 3.10775328  0.5 5.21972132 0.958802223  0.5 4.62159061 1.82634306  0.5 3.88091111 2.5758636  0.5 3.02052855 3.18424606  0.5 2.0669806 3.632725  0.5 1.04967844 3.90746784  1 5.21972132 0.958802223  1 4.62159061 1.82634306  1 3.88091111 2.5758636  1 3.02052855 3.18424606  1 2.0669806 3.632725  1 1.04967844 3.90746784  1.5 5.21972132 0.958802223  1.5 4.62159061 1.82634306  1.5 3.88091111 2.5758636  1.5 3.02052855 3.18424606  1.5 2.0669806 3.632725  1.5 1.04967844 3.90746784  2 5.21972132 0.958802223  2 4.62159061 1.82634306  2 3.88091111 2.5758636  2 3.02052855 3.18424606  2 2.0669806 3.632725  2 1.04967844 3.90746784  2.5 5.21972132 0.958802223  2.5 4.62159061 1.82634306  2.5 3.88091111 2.5758636  2.5 3.02052855 3.18424606  2.5 2.0669806 3.632725  2.5 1.04967844 3.90746784  3 5.21972132 0.958802223  3 4.62159061 1.82634306  3 3.88091111 2.5758636  3 3.02052855 3.18424606  3 2.0669806 3.632725  3 1.04967844 3.90746784  3.5 5.21972132 0.958802223  3.5 4.62159061 1.82634306  3.5 3.88091111 2.5758636  3.5 3.02052855 3.18424606  3.5 2.0669806 3.632725  3.5 1.04967844 3.90746784  4 5.21972132 0.958802223  4 4.62159061 1.82634306  4 3.88091111 2.5758636  4 3.02052855 3.18424606  4 2.0669806 3.632725  4 1.04967844 3.90746784  4.5 5.21972132 0.958802223  4.5 4.62159061 1.82634306  4.5 3.88091111 2.5758636  4.5 3.02052855 3.18424606  4.5 2.0669806 3.632725  4.5 1.04967844 3.90746784  5 5.21972132 0.958802223  5 4.62159061 1.82634306  5 3.88091111 2.5758636  5 3.02052855 3.18424606  5 2.0669806 3.632725  5 1.04967844 3.90746784  5.5 5.21972132 0.958802223  5.5 4.62159061 1.82634306  5.5 3.88091111 2.5758636  5.5 3.02052855 3.18424606  5.5 2.0669806 3.632725  5.5 1.04967844 3.90746784  6 5.21972132 0.958802223  6 4.62159061 1.82634306  6 3.88091111 2.5758636  6 3.02052855 3.18424606  6 2.0669806 3.632725  6 1.04967844 3.90746784  6.5 5.21972132 0.958802223  6.5 4.62159061 1.82634306  6.5 3.88091111 2.5758636  6.5 3.02052855 3.18424606  6.5 2.0669806 3.632725  6.5 1.04967844 3.90746784  7 5.21972132 0.958802223  7 4.62159061 1.82634306  7 3.88091111 2.5758636  7 3.02052855 3.18424606  7 2.0669806 3.632725  7 1.04967844 3.90746784  7.5 5.21972132 0.958802223  7.5 4.62159061 1.82634306  7.5 3.88091111 2.5758636  7.5 3.02052855 3.18424606  7.5 2.0669806 3.632725  7.5 1.04967844 3.90746784  8 5.21972132 0.958802223  8 4.62159061 1.82634306  8 3.88091111 2.5758636  8 3.02052855 3.18424606  8 2.0669806 3.632725  8 1.04967844 3.90746784  8.5 5.21972132 0.958802223  8.5 4.62159061 1.82634306  8.5 3.88091111 2.5758636  8.5 3.02052855 3.18424606  8.5 2.0669806 3.632725  8.5 1.04967844 3.90746784  9 5.21972132 0.958802223  9 4.62159061 1.82634306  9 3.88091111 2.5758636  9 3.02052855 3.18424606  9 2.0669806 3.632725  9 1.04967844 3.90746784  9.5 5.21972132 0.958802223  9.5 4.62159061 1.82634306  9.5 3.88091111 2.5758636  9.5 3.02052855 3.18424606  9.5 2.0669806 3.632725  9.5 1.04967844 3.90746784  10 5.21972132 0.958802223  10 4.62159061 1.82634306  10 3.88091111 2.5758636  10 3.02052855 3.18424606  10 2.0669806 3.632725  10 1.04967844 3.90746784  10.5 5.21972132 0.958802223  10.5 4.62159061 1.82634306  10.5 3.88091111 2.5758636  10.5 3.02052855 3.18424606  10.5 2.0669806 3.632725  10.5 1.04967844 3.90746784  11 5.21972132 0.958802223  11 4.62159061 1.82634306  11 3.88091111 2.5758636  11 3.02052855 3.18424606  11 2.0669806 3.632725  11 1.04967844 3.90746784  11.5 5.21972132 0.958802223  11.5 4.62159061 1.82634306  11.5 3.88091111 2.5758636  11.5 3.02052855 3.18424606  11.5 2.0669806 3.632725  11.5 1.04967844 3.90746784  12 5.21972132 0.958802223  12 4.62159061 1.82634306  12 3.88091111 2.5758636  12 3.02052855 3.18424606  12 2.0669806 3.632725  12 1.04967844 3.90746784  12.5 5.21972132 0.958802223  12.5 4.62159061 1.82634306  12.5 3.88091111 2.5758636  12.5 3.02052855 3.18424606  12.5 2.0669806 3.632725  12.5 1.04967844 3.90746784  13 5.21972132 0.958802223  13 4.62159061 1.82634306  13 3.88091111 2.5758636  13 3.02052855 3.18424606  13 2.0669806 3.632725  13 1.04967844 3.90746784  13.5 5.21972132 0.958802223  13.5 4.62159061 1.82634306  13.5 3.88091111 2.5758636  13.5 3.02052855 3.18424606  13.5 2.0669806 3.632725  13.5 1.04967844 3.90746784  14 5.21972132 0.958802223  14 4.62159061 1.82634306  14 3.88091111 2.5758636  14 3.02052855 3.18424606  14 2.0669806 3.632725  14 1.04967844 3.90746784  14.5 5.21972132 0.958802223  14.5 4.62159061 1.82634306  14.5 3.88091111 2.5758636  14.5 3.02052855 3.18424606  14.5 2.0669806 3.632725  14.5 1.04967844 3.90746784  15 5.21972132 0.958802223  15 4.62159061 1.82634306  15 3.88091111 2.5758636  15 3.02052855 3.18424606  15 2.0669806 3.632725  15 1.04967844 3.90746784  15.5 5.21972132 0.958802223  15.5 4.62159061 1.82634306  15.5 3.88091111 2.5758636  15.5 3.02052855 3.18424606  15.5 2.0669806 3.632725  15.5 1.04967844 3.90746784  16 5.21972132 0.958802223  16 4.62159061 1.82634306  16 3.88091111 2.5758636  16 3.02052855 3.18424606  16 2.0669806 3.632725  16 1.04967844 3.90746784  16.5 5.21972132 0.958802223  16.5 4.62159061 1.82634306  16.5 3.88091111 2.5758636  16.5 3.02052855 3.18424606  16.5 2.0669806 3.632725  16.5 1.04967844 3.90746784  17 5.21972132 0.958802223  17 4.62159061 1.82634306  17 3.88091111 2.5758636  17 3.02052855 3.18424606  17 2.0669806 3.632725  17 1.04967844 3.90746784  17.5 5.21972132 0.958802223  17.5 4.62159061 1.82634306  17.5 3.88091111 2.5758636  17.5 3.02052855 3.18424606  17.
[...]
<PointData  Vectors="f_261141-0"> 
<DataArray  type="Float64"  Name="f_261141-0"  NumberOfComponents="3" format="ascii">0.0000000000000000e+00 0.0000000000000000e+00 0.0000000000000000e+00  0.0000000000000000e+00 0.0000000000000000e+00 4.8767877561048112e-01  0.0000000000000000e+00 8.1022565783327460e-01 0.0000000000000000e+00  6.2275821628380728e+00 0.0000000000000000e+00 4.1146826628553557e+00  7.0343518997922336e+00 7.0082796873056641e-01 3.9199918632456279e+00  6.8943902602834441e+00 0.0000000000000000e+00 3.7961785537895607e+00  0.0000000000000000e+00 0.0000000000000000e+00 1.4257139913714589e-01  0.0000000000000000e+00 0.0000000000000000e+00 2.5845024393491389e-01  0.0000000000000000e+00 0.0000000000000000e+00 3.5114578615770664e-01  0.0000000000000000e+00 1.0881633295900030e-01 4.9181389944271425e-01  0.0000000000000000e+00 2.4236851061001657e-01 4.9024391468160317e-01  0.0000000000000000e+00 3.7672504652131189e-01 4.4712357817106718e-01  0.0000000000000000e+00 5.0392733536826706e-01 3.7308905151278660e-01  0.0000000000000000e+00 6.3992746899079689e-01 2.7445068344771606e-01  0.0000000000000000e+00 7.5262481549435978e-01 1.4999397026541481e-01  0.0000000000000000e+00 6.7193802415454651e-01 0.0000000000000000e+00  0.0000000000000000e+00 5.2107094609792104e-01 0.0000000000000000e+00  0.0000000000000000e+00 3.6842523449888886e-01 0.0000000000000000e+00  0.0000000000000000e+00 2.3450191133643480e-01 0.0000000000000000e+00  0.0000000000000000e+00 1.1487450307668336e-01 0.0000000000000000e+00  6.4890212609208228e-02 0.0000000000000000e+00 4.9056978402808366e-01  1.2689619726276921e-01 0.0000000000000000e+00 4.9101101743387687e-01  1.9167702451010135e-01 0.0000000000000000e+00 4.9390251610152919e-01  2.5753293999575866e-01 0.0000000000000000e+00 4.9564527026566541e-01  3.2308562585152978e-01 0.0000000000000000e+00 4.9991568790871727e-01  3.8847637185624395e-01 0.0000000000000000e+00 5.0290175699908646e-01  4.5389498360862734e-01 0.0000000000000000e+00 5.1165021190548843e-01  5.1973866575576833e-01 0.0000000000000000e+00 5.1552939866754721e-01  5.8427346987255835e-01 0.0000000000000000e+00 5.2810214241116205e-01  6.4923952599968549e-01 0.0000000000000000e+00 5.3617452355120254e-01  7.1441026194594914e-01 0.0000000000000000e+00 5.4861886162254103e-01  7.8080874920381649e-01 0.0000000000000000e+00 5.4955671908658044e-01  8.4630575127615704e-01 0.0000000000000000e+00 5.5813520612676104e-01  9.1309195428595369e-01 0.0000000000000000e+00 5.6907979709520307e-01  9.7864516726717554e-01 0.0000000000000000e+00 5.8295545746751076e-01  1.0432592187328245e+00 0.0000000000000000e+00 5.9081448753908672e-01  1.1073930526853888e+00 0.0000000000000000e+00 5.9995608297435610e-01  1.1707905554170002e+00 0.0000000000000000e+00 6.1599472648109321e-01  1.2381845008587595e+00 0.0000000000000000e+00 6.2875868826375991e-01  1.3042116363799323e+00 0.0000000000000000e+00 6.4049187322033030e-01  1.3688743309503588e+00 0.0000000000000000e+00 6.5685654441405095e-01  1.4364034524645870e+00 0.0000000000000000e+00 6.7389886757739825e-01  1.5027822182517105e+00 0.0000000000000000e+00 6.8990506857011080e-01  1.5674753710475371e+00 0.0000000000000000e+00 7.0378803409739277e-01  1.6314788740107120e+00 0.0000000000000000e+00 7.2286618109815803e-01  1.6960550957071281e+00 0.0000000000000000e+00 7.4097652037111772e-01  1.7600872546269004e+00 0.0000000000000000e+00 7.6189264411236490e-01  1.8260546638385449e+00 0.0000000000000000e+00 7.8214993226120544e-01  1.8899424610489424e+00 0.0000000000000000e+00 7.9970571988098915e-01  1.9548810082660448e+00 0.0000000000000000e+00 8.2551667164486553e-01  2.0216810757484911e+00 0.0000000000000000e+00 8.4340424588076879e-01  2.0894744751581484e+00 0.0000000000000000e+00 8.6764915276827337e-01  2.1523499274898583e+00 0.0000000000000000e+00 8.9754101600524039e-01  2.2180773875615944e+00 0.0000000000000000e+00 9.1831057208986233e-01  2.2816294630838745e+00 0.0000000000000000e+00 9.4486313325850235e-01  2.3462931473421968e+00 0.0000000000000000e+00 9.6984582195811841e-01  2.4083983836255189e+00 0.0000000000000000e+00 9.9804474636318208e-01  2.4719219591591206e+00 0.0000000000000000e+00 1.0247835277865116e+00  2.5371707094053959e+00 0.0000000000000000e+00 1.0520881304495076e+00  2.6006454182214380e+00 0.0000000000000000e+00 1.0822314584794890e+00  2.6660891855977056e+00 0.0000000000000000e+00 1.1142031432333341e+00  2.7310094020157218e+00 0.0000000000000000e+00 1.1411505788329244e+00  2.7938022060732104e+00 0.0000000000000000e+00 1.1747470643099354e+00  2.8596549221321905e+00 0.0000000000000000e+00 1.2060872923829125e+00  2.9241550405651227e+00 0.0000000000000000e+00 1.2401836207426822e+00  2.9899973196698739e+00 0.0000000000000000e+00 1.2752111331666667e+00  3.0539652466439300e+00 0.0000000000000000e+00 1.3085762715280971e+00  3.1169758322072627e+00 0.0000000000000000e+00 1.3425041099421198e+00  3.1809993300601844e+00 0.0000000000000000e+00 1.3799500407320695e+00  3.2451562043249305e+00 0.0000000000000000e+00 1.4157062909155742e+00  3.3109103569063314e+00 0.0000000000000000e+00 1.4552054100046175e+00  3.3735257919644281e+00 0.0000000000000000e+00 1.4942596762239519e+00  3.4368436400881719e+00 0.0000000000000000e+00 1.5326801630152325e+00  3.4992373648849902e+00 0.0000000000000000e+00 1.5778232599372333e+00  3.5623721903016676e+00 0.0000000000000000e+00 1.6164441758511878e+00  3.6255058392230519e+00 0.0000000000000000e+00 1.6554590062640406e+00  3.6913924911244500e+00 0.0000000000000000e+00 1.6989658354316426e+00  3.7556636016439042e+00 0.0000000000000000e+00 1.7440933544921291e+00  3.8194326053598249e+00 0.0000000000000000e+00 1.7898016875858798e+00  3.8805318912006626e+00 0.0000000000000000e+00 1.8365947213070830e+00  3.9456670908710221e+00 0.0000000000000000e+00 1.8810904984837233e+00  4.0096264798377508e+00 0.0000000000000000e+00 1.9286660760679510e+00  4.0728163762826561e+00 0.0000000000000000e+00 1.9723627097724254e+00  4.1378408880185562e+00 0.0000000000000000e+00 2.0202751652255242e+00  4.2018907337725615e+00 0.0000000000000000e+00 2.0672908961208463e+00  4.2641719801821640e+00 0.0000000000000000e+00 2.1136254222836151e+00  4.3285216413039018e+00 0.0000000000000000e+00 2.1640809417545803e+00  4.3910260104449268e+00 0.0000000000000000e+00 2.2154616460230065e+00  4.4523784723734297e+00 0.0000000000000000e+00 2.2659818420958024e+00  4.5154482782173666e+00 0.0000000000000000e+00 2.3187321650488326e+00  4.5786697059114765e+00 0.0000000000000000e+00 2.3715254171048881e+00  4.6411324037205457e+00 0.0000000000000000e+00 2.4270563845542124e+00  4.7010764923415529e+00 0.0000000000000000e+00 2.4833464250258603e+00  4.7640379042877106e+00 0.0000000000000000e+00 2.5399374149972891e+00  4.8284969243757265e+00 0.0000000000000000e+00 2.5935611635284599e+00  4.8894077714416122e+00 0.0000000000000000e+00 2.6546472250175346e+00  4.9515129508778415e+00 0.0000000000000000e+00 2.7108871184220438e+00  5.0126959229012016e+00 0.0000000000000000e+00 2.7703839999269761e+00  5.0752605601752538e+00 0.0000000000000000e+00 2.8297907816476675e+00  5.1375938070974847e+00 0.0000000000000000e+00 2.8913203453110339e+00  5.2000548823192796e+00 0.0000000000000000e+00 2.9517475618260511e+00  5.2610542340278252e+00 0.0000000000000000e+00 3.0088425239969236e+00  5.3235330490846984e+00 0.0000000000000000e+00 3.0733476417969134e+00  5.3851678974916526e+00 0.0000000000000000e+00 3.1374636730221708e+00  5.4470297275535122e+00 0.0000000000000000e+00 3.1950789000481197e+00  5.5081587571515831e+00 0.0000000000000000e+00 3.2609949425011080e+00  5.5698189019793443e+00 0.0000000000000000e+00 3.3228512644852422e+00  5.6293921885661007e+00 0.0000000000000000e+00 3.3861495353906550e+00  5.6918299694609491e+00 0.0000000000000000e+00 3.4540680552311112e+00  5.7517931283506023e+00 0.0000000000000000e+00 3.5203224655416778e+00  5.8129053292295714e+00 0.0000000000000000e+00 3.5815122120157832e+00  5.8740811503171644e+00 0.0000000000000000e+00 3.6430336923718225e+00  5.9343766506192646e+00 0.0000000000000000e+00 3.7018998613865666e+00  5.9936740190921274e+00 0.0000000000000000e+00 3.7567619462762085e+00  6.0476591684441772e+00 0.0000000000000000e+00 3.8094415888306234e+00  6.0948978063745933e+00 0.0000000000000000e+00 3.8588688278530574e+00  6.1353598659571684e+00 0.0000000000000000e+00 3.9130638354091398e+00  6.1705492595609730e+00 0.0000000000000000e+00 3.9717941739567690e+00  6.1989400326016426e+00 0.0000000000000000e+00 4.0363639677324619e+00  6.2585032765462287e+00 5.9652276875195455e-02 4.1085591283776015e+00  6.3218856711403486e+00 1.3493782429012316e-01 4.1172275579688007e+00  6.4100339503121413e+00 2.2185138259853587e-01 4.1264265359648737e+00  6.5265784468807633e+00 3.2862825808240109e-01 4.1231646949303213e+00  6.6842937398823556e+00 4.5176932702967088e-01 4.1024499265509675e+00  6.8725812815750675e+00 5.8957970243034541e-01 4.0291078098247262e+00  6.9718147029616935e+00 7.1776073545183716e-01 3.8382013600737874e+00  6.9065792974033648e+00 7.3803638085054246e-01 3.7514884925287495e+00  6.8414876509180900e+00 7.5522848127931408e-01 3.6629751947114890e+00  6.7725512892619761e+00 7.6964572803376585e-01 3.5771328052503497e+00  6.7024693120382812e+00 7.8206627030024067e-01 3.4913915356668306e+00  6.6308655157198677e+00 7.9407656732506127e-01 3.4045430857354066e+00  6.5570793877015454e+00 7.9802735025361793e-01 3.3209396261043951e+00  6.4811243901764675e+00 8.0040647560468692e-01 3.2412074392275967e+00  6.4078301362106842e+00 8.0306020364154773e-01 3.1598824271789701e+00  6.3326116823363243e+00 8.0291067013927098e-01 3.0839661814136674e+00  6.2595989290605765e+00 8.0514541555682917e-01 3.0068659871325876e+00  6.1875686552786719e+00 8.0934285539047490e-01 2.9315543417137500e+00  6.1160512101469395e+00 8.1034289049797870e-01 2.8624204474217803e+00  6.0448951386310084e+00 8.1032534824837976e-01 2.7933964495044172e+00  5.9766178124391001e+00 8.0870778466055171e-01 2.7205923845745432e+00  5.9051796933075469e+00 8.0528484645923359e-01 2.6509883174182880e+00  5.8365392836667214e+00 8.0438748245834690e-01 2.5905319542284295e+00  5.7670778932444504e+00 8.0753429395684717e-01 2.5297484539034700e+00  5.6990648641641837e+00 8.1082956043851306e-01 2.4654497019071244e+00  5.6307014161132098e+00 8.1071409781048331e-01 2.4014710012727707e+00  5.5614286699559186e+00 8.0824913120971309e-01 2.3384689535279035e+00  5.4901092914657585e+00 8.0655091070199270e-01 2.2768171279103671e+00  5.4205134076780066e+00 8.0551722019338357e-01 2.2135546213724626e+00  5.3505898888380878e+00 8.0162749548198009e-01 2.1530443325245474e+00  5.2828768922276597e+00 8.0186954835362356e-01 2.0897193868880386e+00  5.2133623723853937e+00 7.9563883947205993e-01 2.0329004653032823e+00  5.1432648902294273e+00 7.9613808397715358e-01 1.9764499836995573e+00  5.0745021260448144e+00 7.9867721025101213e-01 1.9176944996308558e+00  5.0064063339726674e+00 7.9771594282875224e-01 1.8645873485095255e+00  4.9389004447297626e+00 7.9954002653529732e-01 1.8100041651969652e+00  4.8692465284916846e+00 7.9797042670498441e-01 1.7580370456437657e+00  4.8002122608125948e+00 7.9487634188295653e-01 1.7059671702070005e+00  4.7304710840024260e+00 7.9375050832166982e-01 1.6552216723338038e+00  4.6614201995806370e+00 7.9499318709770317e-01 1.6040236406646886e+00  4.5924681218991026e+00 7.9485402140965855e-01 1.5549460086979208e+00  4.5241102486269620e+00 7.9611417286099717e-01 1.5046369181067822e+00  4.4556775107706725e+00 7.9783066610125053e-01 1.4538805178701204e+00  4.3854552299568832e+00 7.9862086145836408e-01 1.4063861815714942e+00  4.3151030842380882e+00 7.9800476569155099e-01 1.3604027085372306e+00  4.2462301453770595e+00 7.9839843502489927e-01 1.3138946083843561e+00  4.1765597431601789e+00 7.9795010782910247e-01 1.2673338853044280e+00  4.1063111803752905e+00 7.9702441320115103e-01 1.2242775571588655e+00  4.0348729281602544e+00 7.9360658851083588e-01 1.1827696695909866e+00  3.9660559527500086e+00 7.9382545321070308e-01 1.1359527684901245e+00  3.8975622339707008e+00 7.9464585260100729e-01 1.0922961425014788e+00  3.8281998646953421e+00 7.9620044622839348e-01 1.0529985412647431e+00  3.7589128281596231e+00 7.9926039606349297e-01 1.0129317243142268e+00  3.6886174279228694e+00 7.9819801391349976e-01 9.7552616991217123e-01  3.6176942312530680e+00 7.9576924955405781e-01 9.3707447025127377e-01  3.5464682707716770e+00 7.9561370084542615e-01 8.9798695067579015e-01  3.4750389885335018e+00 7.9469314031750315e-01 8.6225530735422995e-01  3.4047941400231201e+00 7.9976299328243095e-01 8.2134643123155959e-01  3.3350601532535213e+00 7.9641566495728211e-01 7.8902019926828570e-01  3.2650120970585315e+00 7.9866539044264517e-01 7.4747302338013266e-01  3.1955255382672361e+00 7.9342476144406004e-01 7.1001831453028041e-01  3.1232595517671640e+00 7.9317047464094814e-01 6.7773077852689334e-01  3.0514999385832664e+00 7.9539270280453866e-01 6.4724641195945132e-01  2.9817840552198218e+00 7.9695100802074059e-01 6.1394828083800435e-01  2.9109904629548224e+00 7.9666564830530795e-01 5.8393853082692659e-01  2.8414721356438313e+00 7.9689605020549648e-01 5.5232116721552160e-01  2.7699441574669184e+00 7.9673626013886523e-01 5.2398607226950789e-01  2.6993675000915869e+00 7.9668100142776699e-01 4.9552713275959093e-01  2.6273731466638064e+00 7.9905717764828021e-01 4.7086702302541555e-01  2.5585688573693028e+00 7.9905253572137891e-01 4.4351584297326929e-01  2.4877449572161012e+00 7.9969636953565204e-01 4.2084192269603782e-01  2.4154677934451025e+00 7.9732914874564143e-01 4.0064262475741308e-01  2.3446808468690632e+00 8.0017647239335699e-01 3.7368425900503299e-01  2.2751902807703526e+00 8.0140813580483328e-01 3.4767445630172139e-01  2.2051240193494177e+00 7.9925984805123085e-01 3.2571140168738949e-01  2.1343707819233568e+00 8.0037785366542891e-01 3.0147452856914869e-01  2.0625747124616560e+00 7.9810698070875430e-01 2.8082771243174759e-01  1.9912032813268163e+00 8.0026352920316768e-01 2.5735336886552734e-01  1.9206340365091321e+00 7.9949476209639037e-01 2.3504685911105982e-01  1.8481883102935348e+00 7.9801814609153476e-01 2.1514937699351244e-01  1.7768346370468422e+00 7.9718200026213404e-01 1.9471138233480029e-01  1.7045888501429141e+00 7.9810610910328261e-01 1.7718937091154296e-01  1.6338644598005563e+00 7.9981182482328395e-01 1.6081403946454437e-01  1.5647731518283241e+00 8.0130689236467223e-01 1.4486916014929735e-01  1.4937507942604977e+00 8.0305458864197055e-01 1.2993913650347286e-01  1.4215405680354918e+00 7.9938471354032581e-01 1.1879403316072552e-01  1.3507323961538724e+00 8.0008458795272364e-01 1.0310723568372226e-01  1.2793349992754157e+00 7.9985072764692156e-01 9.1841559877218329e-02  1.2088164506679258e+00 7.9734182523453234e-01 8.1042120787931951e-02  1.1380742580800955e+00 8.0196270397464242e-01 6.5537730043342290e-02  1.0684029496340353e+00 7.9910102965867169e-01 5.1843394936788197e-02  9.9745076726803295e-01 8.0021342264085071e-01 4.0445595211196096e-02  9.2463590686516073e-01 7.9636242114057298e-01 3.4221572077782779e-02  8.5371327682916176e-01 7.9801939075033324e-01 2.2529941508569011e-02  7.8231762499272472e-01 7.9717794331682412e-01 1.6290332275754608e-02  7.1051412965166838e-01 7.9936973966938818e-01 1.0473833592413804e-02  6.3999633011611279e-01 8.0129950749798684e-01 3.6299984101571562e-03  5.6941917741644910e-01 8.0293661094804303e-01 -4.8205475280020432e-04  4.9869150213867958e-01 8.0339033047099473e-01 -3.6044403876806649e-03  4.2572276353421745e-01 8.0658593239204079e-01 -1.7455415779309019e-03  3.5445091953760588e-01 8.0860434690871041e-01 -9.9623472172655214e-04  2.8378280672181150e-01 8.1025483529465836e-01 -1.4960731595792183e-04  2.1204318658730470e-01 8.0700782035537189e-01 1.8950696041762994e-03  1.4016439629477265e-01 8.0765259868423678e-01 0.0000000000000000e+00  6.8150003918478780e-02 8.0600260910083155e-01 0.0000000000000000e+00  7.0043156845285468e+00 5.6025954087356344e-01 3.8848444721264932e+00  6.9774900927845902e+00 4.3858522516631693e-01 3.8514630023507621e+00  6.9475555896239563e+00 3.1553781644604600e-01 3.8257744072579962e+00  6.9327951103122247e+00 2.1051475258885385e-01 3.8191160417033512e+00  6.9098327420646086e+00 1.0043974760876544e-01 3.8021996703308458e+00  6.8315372782752455e+00 0.0000000000000000e+00 3.7044562262540230e+00  6.7716093159894610e+00 0.0000000000000000e+00 3.6278708747681376e+00  6.7110406602983650e+00 0.0000000000000000e+00 3.5467912920743871e+00  6.6487337742910002e+00 0.0000000000000000e+00 3.4707809911318135e+00  6.5849461938948686e+00 0.0000000000000000e+00 3.3998197068443967e+00  6.5215316507951506e+00 0.0000000000000000e+00 3.3310170904677090e+00  6.4570020069028500e+00 0.0000000000000000e+00 3.2631458942958491e+00  6.3953117474938912e+00 0.0000000000000000e+00 3.1951137151210638e+00  6.3325417538828352e+00 0.0000000000000000e+00 3.1256934898808129e+00  6.2657685841344586e+00 0.0000000000000000e+00 3.0664183069214457e+00  6.2028411093899045e+00 0.0000000000000000e+00 3.0013980284807773e+00  6.1387242622804408e+00 0.0000000000000000e+00 2.9338927341054535e+00  6.0745772148485306e+00 0.0000000000000000e+00 2.8673251874069718e+00  6.0072921702839821e+00 0.0000000000000000e+00 2.8065556813541859e+00  5.9414166433623379e+00 0.0000000000000000e+00 2.7454248998100921e+00  5.8761969437944579e+00 0.0000000000000000e+00 2.6834290093851290e+00  5.8112988375972101e+00 0.0000000000000000e+00 2.6189459856162864e+00  5.7456644506934866e+00 0.0000000000000000e+00 2.5555024327631788e+00  5.6784348550247348e+00 0.0000000000000000e+00 2.4983636039798474e+00  5.6136553131430516e+00 0.0000000000000000e+00 2.4381153660855959e+00  5.5457507751659758e+00 0.0000000000000000e+00 2.3781067951237742e+00  5.4767232904621377e+00 0.0000000000000000e+00 2.3222450212928352e+00  5.4087920527051079e+00 0.0000000000000000e+00 2.2613225578192595e+00  5.3404700930336420e+00 0.0000000000000000e+00 2.2057573656502010e+00  5.2733243402089007e+00 0.0000000000000000e+00 2.1466757127103904e+00  5.2063225314969523e+00 0.0000000000000000e+00 2.0879588705019452e+00  5.1386763268958928e+00 0.0000000000000000e+00 2.0299311276418819e+00  5.0682368705830818e+00 0.0000000000000000e+00 1.9789913480808436e+00  4.9982208758594906e+00 0.0000000000000000e+00 1.9236929371641627e+00  4.9285838035688769e+00 0.0000000000000000e+00 1.8715225756184886e+00  4.8591952621069758e+00 0.0000000000000000e+00 1.8204154505668304e+00  4.7926387011912919e+00 0.0000000000000000e+00 1.7664786585652525e+00  4.7261644113902470e+00 0.0000000000000000e+00 1.7100579785131869e+00  4.6571064370331028e+00 0.0000000000000000e+00 1.6601741371226353e+00  4.5876380782942325e+00 0.0000000000000000e+00 1.6090552301691803e+00  4.5179845822531668e+00 0.0000000000000000e+00 1.5626602889037327e+00  4.4487997102868482e+00 0.0000000000000000e+00 1.5132739063728231e+00  4.3806946508925551e+00 0.0000000000000000e+00 1.4658172311554212e+00  4.3105826484357852e+00 0.0000000000000000e+00 1.4207649832622846e+00  4.2403856432664950e+00 0.0000000000000000e+00 1.3715408081042699e+00  4.1698491370412833e+00 0.0000000000000000e+00 1.3286527672259252e+00  4.1021494016708493e+00 0.0000000000000000e+00 1.2797799708585351e+00  4.0308264020888220e+00 0.0000000000000000e+00 1.2358807274901185e+00  3.9601851593724322e+00 0.0000000000000000e+00 1.1952843346951492e+00  3.8905901717656182e+00 0.0000000000000000e+00 1.1528429233553235e+00  3.8202654381455754e+00 0.0000000000000000e+00 1.1104349728253229e+00  3.7486913648509472e+00 0.0000000000000000e+00 1.0730703350831441e+00  3.6811371496615624e+00 0.0000000000000000e+00 1.0306292545040361e+00  3.6098148207495568e+00 0.0000000000000000e+00 9.9408590205362890e-01  3.5402657636686659e+00 0.0000000000000000e+00 9.5354234783671232e-01  3.4704993642892941e+00 0.0000000000000000e+00 9.1830401823864682e-01  3.4009091213923193e+00 0.0000000000000000e+00 8.8059878945832659e-01  3.3313639554338690e+00 0.0000000000000000e+00 8.4634595747728347e-01  3.2629007441630997e+00 0.0000000000000000e+00 8.0683633291243628e-01  3.1931575134158816e+00 0.0000000000000000e+00 7.7129749529618141e