<?xml version="1.0"?>
<VTKFile type="UnstructuredGrid"  version="0.1"  >
<UnstructuredGrid>
<Piece  NumberOfPoints="3069" NumberOfCells="12882">
<Points>
<DataArray  type="Float64"  NumberOfComponents="3"  format="ascii">0 0 0  0 0 4  0 5.65685415 0  50 0 4  50 5.65685415 0  50 0 0  0 0 1  0 0 2  0 0 3  0 1.04967844 3.90746784  0 2.0669806 3.632725  0 3.02052855 3.18424606  0 3.88091111 2.5758636  0 4.62159061 1.82634306  0 5.21972132 0.958802283  0 4.71404505 0  0 3.77123618 0  0 2.82842708 0  0 1.88561809 0  0 0.942809045 0  0.5 0 4  1 0 4  1.5 0 4  2 0 4  2.5 0 4  3 0 4  3.5 0 4  4 0 4  4.5 0 4  5 0 4  5.5 0 4  6 0 4  6.5 0 4  7 0 4  7.5 0 4  8 0 4  8.5 0 4  9 0 4  9.5 0 4  10 0 4  10.5 0 4  11 0 4  11.5 0 4  12 0 4  12.5 0 4  13 0 4  13.5 0 4  14 0 4  14.5 0 4  15 0 4  15.5 0 4  16 0 4  16.5 0 4  17 0 4  17.5 0 4  18 0 4  18.5 0 4  19 0 4  19.5 0 4  20 0 4  20.5 0 4  21 0 4  21.5 0 4  22 0 4  22.5 0 4  23 0 4  23.5 0 4  24 0 4  24.5 0 4  25 0 4  25.5 0 4  26 0 4  26.5 0 4  27 0 4  27.5 0 4  28 0 4  28.5 0 4  29 0 4  29.5 0 4  30 0 4  30.5 0 4  31 0 4  31.5 0 4  32 0 4  32.5 0 4  33 0 4  33.5 0 4  34 0 4  34.5 0 4  35 0 4  35.5 0 4  36 0 4  36.5 0 4  37 0 4  37.5 0 4  38 0 4  38.5 0 4  39 0 4  39.5 0 4  40 0 4  40.5 0 4  41 0 4  41.5 0 4  42 0 4  42.5 0 4  43 0 4  43.5 0 4  44 0 4  44.5 0 4  45 0 4  45.5 0 4  46 0 4  46.5 0 4  47 0 4  47.5 0 4  48 0 4  48.5 0 4  49 0 4  49.5 0 4  50 1.04967844 3.90746784  50 2.0669806 3.632725  50 3.02052855 3.18424606  50 3.88091111 2.5758636  50 4.62159061 1.82634306  50 5.21972132 0.958802283  49.5 5.65685415 0  49 5.65685415 0  48.5 5.65685415 0  48 5.65685415 0  47.5 5.65685415 0  47 5.65685415 0  46.5 5.65685415 0  46 5.65685415 0  45.5 5.65685415 0  45 5.65685415 0  44.5 5.65685415 0  44 5.65685415 0  43.5 5.65685415 0  43 5.65685415 0  42.5 5.65685415 0  42 5.65685415 0  41.5 5.65685415 0  41 5.65685415 0  40.5 5.65685415 0  40 5.65685415 0  39.5 5.65685415 0  39 5.65685415 0  38.5 5.65685415 0  38 5.65685415 0  37.5 5.65685415 0  37 5.65685415 0  36.5 5.65685415 0  36 5.65685415 0  35.5 5.65685415 0  35 5.65685415 0  34.5 5.65685415 0  34 5.65685415 0  33.5 5.65685415 0  33 5.65685415 0  32.5 5.65685415 0  32 5.65685415 0  31.5 5.65685415 0  31 5.65685415 0  30.5 5.65685415 0  30 5.65685415 0  29.5 5.65685415 0  29 5.65685415 0  28.5 5.65685415 0  28 5.65685415 0  27.5 5.65685415 0  27 5.65685415 0  26.5 5.65685415 0  26 5.65685415 0  25.5 5.65685415 0  25 5.65685415 0  24.5 5.65685415 0  24 5.65685415 0  23.5 5.65685415 0  23 5.65685415 0  22.5 5.65685415 0  22 5.65685415 0  21.5 5.65685415 0  21 5.65685415 0  20.5 5.65685415 0  20 5.65685415 0  19.5 5.65685415 0  19 5.65685415 0  18.5 5.65685415 0  18 5.65685415 0  17.5 5.65685415 0  17 5.65685415 0  16.5 5.65685415 0  16 5.65685415 0  15.5 5.65685415 0  15 5.65685415 0  14.5 5.65685415 0  14 5.65685415 0  13.5 5.65685415 0  13 5.65685415 0  12.5 5.65685415 0  12 5.65685415 0  11.5 5.65685415 0  11 5.65685415 0  10.5 5.65685415 0  10 5.65685415 0  9.5 5.65685415 0  9 5.65685415 0  8.5 5.65685415 0  8 5.65685415 0  7.5 5.65685415 0  7 5.65685415 0  6.5 5.65685415 0  6 5.65685415 0  5.5 5.65685415 0  5 5.65685415 0  4.5 5.65685415 0  4 5.65685415 0  3.5 5.65685415 0  3 5.65685415 0  2.5 5.65685415 0  2 5.65685415 0  1.5 5.65685415 0  1 5.65685415 0  0.5 5.65685415 0  50 4.71404505 0  50 3.77123618 0  50 2.82842708 0  50 1.88561809 0  50 0.942809045 0  49.5 0 0  49 0 0  48.5 0 0  48 0 0  47.5 0 0  47 0 0  46.5 0 0  46 0 0  45.5 0 0  45 0 0  44.5 0 0  44 0 0  43.5 0 0  43 0 0  42.5 0 0  42 0 0  41.5 0 0  41 0 0  40.5 0 0  40 0 0  39.5 0 0  39 0 0  38.5 0 0  38 0 0  37.5 0 0  37 0 0  36.5 0 0  36 0 0  35.5 0 0  35 0 0  34.5 0 0  34 0 0  33.5 0 0  33 0 0  32.5 0 0  32 0 0  31.5 0 0  31 0 0  30.5 0 0  30 0 0  29.5 0 0  29 0 0  28.5 0 0  28 0 0  27.5 0 0  27 0 0  26.5 0 0  26 0 0  25.5 0 0  25 0 0  24.5 0 0  24 0 0  23.5 0 0  23 0 0  22.5 0 0  22 0 0  21.5 0 0  21 0 0  20.5 0 0  20 0 0  19.5 0 0  19 0 0  18.5 0 0  18 0 0  17.5 0 0  17 0 0  16.5 0 0  16 0 0  15.5 0 0  15 0 0  14.5 0 0  14 0 0  13.5 0 0  13 0 0  12.5 0 0  12 0 0  11.5 0 0  11 0 0  10.5 0 0  10 0 0  9.5 0 0  9 0 0  8.5 0 0  8 0 0  7.5 0 0  7 0 0  6.5 0 0  6 0 0  5.5 0 0  5 0 0  4.5 0 0  4 0 0  3.5 0 0  3 0 0  2.5 0 0  2 0 0  1.5 0 0  1 0 0  0.5 0 0  50 0 1  50 0 2  50 0 3  0 2.33524275 0.893602192  0 2.87561393 1.93323028  0 4.2367816 0.876864135  0 2.00050235 2.65534091  0 0.981494486 2.34323239  0 3.78543234 1.61830366  0 3.30545568 0.887000024  0 0.812916458 1.58408713  0 1.71948838 1.71268857  0 1.28267908 0.8650629520000001  0 1.21973121 3.10775328  0.5 5.21972132 0.958802223  0.5 4.62159061 1.82634306  0.5 3.88091111 2.5758636  0.5 3.02052855 3.18424606  0.5 2.0669806 3.632725  0.5 1.04967844 3.90746784  1 5.21972132 0.958802223  1 4.62159061 1.82634306  1 3.88091111 2.5758636  1 3.02052855 3.18424606  1 2.0669806 3.632725  1 1.04967844 3.90746784  1.5 5.21972132 0.958802223  1.5 4.62159061 1.82634306  1.5 3.88091111 2.5758636  1.5 3.02052855 3.18424606  1.5 2.0669806 3.632725  1.5 1.04967844 3.90746784  2 5.21972132 0.958802223  2 4.62159061 1.82634306  2 3.88091111 2.5758636  2 3.02052855 3.18424606  2 2.0669806 3.632725  2 1.04967844 3.90746784  2.5 5.21972132 0.958802223  2.5 4.62159061 1.82634306  2.5 3.88091111 2.5758636  2.5 3.02052855 3.18424606  2.5 2.0669806 3.632725  2.5 1.04967844 3.90746784  3 5.21972132 0.958802223  3 4.62159061 1.82634306  3 3.88091111 2.5758636  3 3.02052855 3.18424606  3 2.0669806 3.632725  3 1.04967844 3.90746784  3.5 5.21972132 0.958802223  3.5 4.62159061 1.82634306  3.5 3.88091111 2.5758636  3.5 3.02052855 3.18424606  3.5 2.0669806 3.632725  3.5 1.04967844 3.90746784  4 5.21972132 0.958802223  4 4.62159061 1.82634306  4 3.88091111 2.5758636  4 3.02052855 3.18424606  4 2.0669806 3.632725  4 1.04967844 3.90746784  4.5 5.21972132 0.958802223  4.5 4.62159061 1.82634306  4.5 3.88091111 2.5758636  4.5 3.02052855 3.18424606  4.5 2.0669806 3.632725  4.5 1.04967844 3.90746784  5 5.21972132 0.958802223  5 4.62159061 1.82634306  5 3.88091111 2.5758636  5 3.02052855 3.18424606  5 2.0669806 3.632725  5 1.04967844 3.90746784  5.5 5.21972132 0.958802223  5.5 4.62159061 1.82634306  5.5 3.88091111 2.5758636  5.5 3.02052855 3.18424606  5.5 2.0669806 3.632725  5.5 1.04967844 3.90746784  6 5.21972132 0.958802223  6 4.62159061 1.82634306  6 3.88091111 2.5758636  6 3.02052855 3.18424606  6 2.0669806 3.632725  6 1.04967844 3.90746784  6.5 5.21972132 0.958802223  6.5 4.62159061 1.82634306  6.5 3.88091111 2.5758636  6.5 3.02052855 3.18424606  6.5 2.0669806 3.632725  6.5 1.04967844 3.90746784  7 5.21972132 0.958802223  7 4.62159061 1.82634306  7 3.88091111 2.5758636  7 3.02052855 3.18424606  7 2.0669806 3.632725  7 1.04967844 3.90746784  7.5 5.21972132 0.958802223  7.5 4.62159061 1.82634306  7.5 3.88091111 2.5758636  7.5 3.02052855 3.18424606  7.5 2.0669806 3.632725  7.5 1.04967844 3.90746784  8 5.21972132 0.958802223  8 4.62159061 1.82634306  8 3.88091111 2.5758636  8 3.02052855 3.18424606  8 2.0669806 3.632725  8 1.04967844 3.90746784  8.5 5.21972132 0.958802223  8.5 4.62159061 1.82634306  8.5 3.88091111 2.5758636  8.5 3.02052855 3.18424606  8.5 2.0669806 3.632725  8.5 1.04967844 3.90746784  9 5.21972132 0.958802223  9 4.62159061 1.82634306  9 3.88091111 2.5758636  9 3.02052855 3.18424606  9 2.0669806 3.632725  9 1.04967844 3.90746784  9.5 5.21972132 0.958802223  9.5 4.62159061 1.82634306  9.5 3.88091111 2.5758636  9.5 3.02052855 3.18424606  9.5 2.0669806 3.632725  9.5 1.04967844 3.90746784  10 5.21972132 0.958802223  10 4.62159061 1.82634306  10 3.88091111 2.5758636  10 3.02052855 3.18424606  10 2.0669806 3.632725  10 1.04967844 3.90746784  10.5 5.21972132 0.958802223  10.5 4.62159061 1.82634306  10.5 3.88091111 2.5758636  10.5 3.02052855 3.18424606  10.5 2.0669806 3.632725  10.5 1.04967844 3.90746784  11 5.21972132 0.958802223  11 4.62159061 1.82634306  11 3.88091111 2.5758636  11 3.02052855 3.18424606  11 2.0669806 3.632725  11 1.04967844 3.90746784  11.5 5.21972132 0.958802223  11.5 4.62159061 1.82634306  11.5 3.88091111 2.5758636  11.5 3.02052855 3.18424606  11.5 2.0669806 3.632725  11.5 1.04967844 3.90746784  12 5.21972132 0.958802223  12 4.62159061 1.82634306  12 3.88091111 2.5758636  12 3.02052855 3.18424606  12 2.0669806 3.632725  12 1.04967844 3.90746784  12.5 5.21972132 0.958802223  12.5 4.62159061 1.82634306  12.5 3.88091111 2.5758636  12.5 3.02052855 3.18424606  12.5 2.0669806 3.632725  12.5 1.04967844 3.90746784  13 5.21972132 0.958802223  13 4.62159061 1.82634306  13 3.88091111 2.5758636  13 3.02052855 3.18424606  13 2.0669806 3.632725  13 1.04967844 3.90746784  13.5 5.21972132 0.958802223  13.5 4.62159061 1.82634306  13.5 3.88091111 2.5758636  13.5 3.02052855 3.18424606  13.5 2.0669806 3.632725  13.5 1.04967844 3.90746784  14 5.21972132 0.958802223  14 4.62159061 1.82634306  14 3.88091111 2.5758636  14 3.02052855 3.18424606  14 2.0669806 3.632725  14 1.04967844 3.90746784  14.5 5.21972132 0.958802223  14.5 4.62159061 1.82634306  14.5 3.88091111 2.5758636  14.5 3.02052855 3.18424606  14.5 2.0669806 3.632725  14.5 1.04967844 3.90746784  15 5.21972132 0.958802223  15 4.62159061 1.82634306  15 3.88091111 2.5758636  15 3.02052855 3.18424606  15 2.0669806 3.632725  15 1.04967844 3.90746784  15.5 5.21972132 0.958802223  15.5 4.62159061 1.82634306  15.5 3.88091111 2.5758636  15.5 3.02052855 3.18424606  15.5 2.0669806 3.632725  15.5 1.04967844 3.90746784  16 5.21972132 0.958802223  16 4.62159061 1.82634306  16 3.88091111 2.5758636  16 3.02052855 3.18424606  16 2.0669806 3.632725  16 1.04967844 3.90746784  16.5 5.21972132 0.958802223  16.5 4.62159061 1.82634306  16.5 3.88091111 2.5758636  16.5 3.02052855 3.18424606  16.5 2.0669806 3.632725  16.5 1.04967844 3.90746784  17 5.21972132 0.958802223  17 4.62159061 1.82634306  17 3.88091111 2.5758636  17 3.02052855 3.18424606  17 2.0669806 3.632725  17 1.04967844 3.90746784  17.5 5.21972132 0.958802223  17.5 4.62159061 1.82634306  17.5 3.88091111 2.5758636  17.5 3.02052855 3.18424606  17.
[...]
<PointData  Vectors="f_261141-0"> 
<DataArray  type="Float64"  Name="f_261141-0"  NumberOfComponents="3" format="ascii">0.0000000000000000e+00 0.0000000000000000e+00 0.0000000000000000e+00  0.0000000000000000e+00 0.0000000000000000e+00 8.1008371831448001e-01  0.0000000000000000e+00 1.0511391169932376e+00 0.0000000000000000e+00  9.9486026546398936e+00 0.0000000000000000e+00 -1.7994079836886427e+00  9.2657132477168282e+00 1.1225969564819955e+00 -2.8294325605520205e+00  9.3809036920406452e+00 0.0000000000000000e+00 -2.7101175636059325e+00  0.0000000000000000e+00 0.0000000000000000e+00 1.7250517183776046e-01  0.0000000000000000e+00 0.0000000000000000e+00 3.9301159797960267e-01  0.0000000000000000e+00 0.0000000000000000e+00 6.2990883001842024e-01  0.0000000000000000e+00 2.3782492562752530e-01 7.7720110927109065e-01  0.0000000000000000e+00 4.2606164262026242e-01 6.9211596376698759e-01  0.0000000000000000e+00 6.0443777803723875e-01 5.9782672088970734e-01  0.0000000000000000e+00 7.5852682691199480e-01 4.7667712272680157e-01  0.0000000000000000e+00 8.8601163731685273e-01 3.2596196888881002e-01  0.0000000000000000e+00 9.8507710436880314e-01 1.6941511781841323e-01  0.0000000000000000e+00 8.8792542386301165e-01 0.0000000000000000e+00  0.0000000000000000e+00 7.2014521777797957e-01 0.0000000000000000e+00  0.0000000000000000e+00 5.5147787778873403e-01 0.0000000000000000e+00  0.0000000000000000e+00 3.7817368321449185e-01 0.0000000000000000e+00  0.0000000000000000e+00 1.9381111479563842e-01 0.0000000000000000e+00  9.7355595052287122e-02 0.0000000000000000e+00 8.1184423529407346e-01  1.9661642906281682e-01 0.0000000000000000e+00 8.1195664906285292e-01  2.9581454094130399e-01 0.0000000000000000e+00 8.1235167370041572e-01  3.9670063311349235e-01 0.0000000000000000e+00 8.0903724174138858e-01  4.9150958343463746e-01 0.0000000000000000e+00 8.1548917312538549e-01  5.9378855989989132e-01 0.0000000000000000e+00 8.0730093563533845e-01  6.8983948086927949e-01 0.0000000000000000e+00 8.0528871436618343e-01  7.9195486024997275e-01 0.0000000000000000e+00 7.9543499871843726e-01  8.9086927655978421e-01 0.0000000000000000e+00 7.8746263939450456e-01  9.8906672149881036e-01 0.0000000000000000e+00 7.7795315580270086e-01  1.0862085811912017e+00 0.0000000000000000e+00 7.7362839839681785e-01  1.1847952581258845e+00 0.0000000000000000e+00 7.7326700778182189e-01  1.2836741350580843e+00 0.0000000000000000e+00 7.6874544378060805e-01  1.3868835170790237e+00 0.0000000000000000e+00 7.5363066537763956e-01  1.4825946050240051e+00 0.0000000000000000e+00 7.4951414750309475e-01  1.5850695263444206e+00 0.0000000000000000e+00 7.3955751582540408e-01  1.6838734409230469e+00 0.0000000000000000e+00 7.3075888260289201e-01  1.7830532693159629e+00 0.0000000000000000e+00 7.1926604390964144e-01  1.8800805107450254e+00 0.0000000000000000e+00 7.1315826360384826e-01  1.9775674132580552e+00 0.0000000000000000e+00 7.0491502843700082e-01  2.0755359033788530e+00 0.0000000000000000e+00 7.0096925016939826e-01  2.1730875867313530e+00 0.0000000000000000e+00 6.8477644436323926e-01  2.2727042017233594e+00 0.0000000000000000e+00 6.7634085453865678e-01  2.3721695965002789e+00 0.0000000000000000e+00 6.6232414843557297e-01  2.4688315926345012e+00 0.0000000000000000e+00 6.5526816501773755e-01  2.5701504024943116e+00 0.0000000000000000e+00 6.3626983576904039e-01  2.6698373014498609e+00 0.0000000000000000e+00 6.1955698606044585e-01  2.7663641970403812e+00 0.0000000000000000e+00 6.0928227566386439e-01  2.8660641452850810e+00 0.0000000000000000e+00 5.9335828298938087e-01  2.9667460362894618e+00 0.0000000000000000e+00 5.6999832080854607e-01  3.0581364408971439e+00 0.0000000000000000e+00 5.7044073158431807e-01  3.1546301694167829e+00 0.0000000000000000e+00 5.4877681678536472e-01  3.2540309418210049e+00 0.0000000000000000e+00 5.2797716620004698e-01  3.3540955569051643e+00 0.0000000000000000e+00 5.0685707909270195e-01  3.4557790675830797e+00 0.0000000000000000e+00 4.8617054809611487e-01  3.5557414379656018e+00 0.0000000000000000e+00 4.6883653435983158e-01  3.6565070998382341e+00 0.0000000000000000e+00 4.5000317590572059e-01  3.7540108368282632e+00 0.0000000000000000e+00 4.3533856010923078e-01  3.8549302894105790e+00 0.0000000000000000e+00 4.0901726513684949e-01  3.9526412948311549e+00 0.0000000000000000e+00 3.9166916814608072e-01  4.0471547503712433e+00 0.0000000000000000e+00 3.7560910932137570e-01  4.1481852173740910e+00 0.0000000000000000e+00 3.5395580686060873e-01  4.2443497395497518e+00 0.0000000000000000e+00 3.3274802863490016e-01  4.3471206092658399e+00 0.0000000000000000e+00 2.9833578790743814e-01  4.4419176849575583e+00 0.0000000000000000e+00 2.7835359064637810e-01  4.5391006438948214e+00 0.0000000000000000e+00 2.5290995960425616e-01  4.6370427004808201e+00 0.0000000000000000e+00 2.3336777275616846e-01  4.7369354931703542e+00 0.0000000000000000e+00 2.0675916282329460e-01  4.8352251046848727e+00 0.0000000000000000e+00 1.8273440546791112e-01  4.9347906792998693e+00 0.0000000000000000e+00 1.5573509375364036e-01  5.0344642621540885e+00 0.0000000000000000e+00 1.2485137816764448e-01  5.1309426503625559e+00 0.0000000000000000e+00 1.0323251298615363e-01  5.2313532804410920e+00 0.0000000000000000e+00 6.8777620096207956e-02  5.3273406577583415e+00 0.0000000000000000e+00 4.5628963880186689e-02  5.4261710235137501e+00 0.0000000000000000e+00 1.3858325516168220e-02  5.5280434031660990e+00 0.0000000000000000e+00 -1.6011507492530375e-02  5.6257336871121710e+00 0.0000000000000000e+00 -4.8661950047193044e-02  5.7218665773485506e+00 0.0000000000000000e+00 -7.7078379888775042e-02  5.8201583578089746e+00 0.0000000000000000e+00 -1.0424872302827186e-01  5.9207488911312680e+00 0.0000000000000000e+00 -1.4247816708815869e-01  6.0185629899185953e+00 0.0000000000000000e+00 -1.8128562256649103e-01  6.1146411045141313e+00 0.0000000000000000e+00 -2.0809271465892626e-01  6.2134558554144066e+00 0.0000000000000000e+00 -2.4489113163628390e-01  6.3122196032566817e+00 0.0000000000000000e+00 -2.8098223700135538e-01  6.4078874221678959e+00 0.0000000000000000e+00 -3.0657978657781504e-01  6.5087580753233771e+00 0.0000000000000000e+00 -3.4414668175592966e-01  6.6084338008535903e+00 0.0000000000000000e+00 -3.8018996212937622e-01  6.7042481593823604e+00 0.0000000000000000e+00 -4.1556246603554986e-01  6.8033604485059840e+00 0.0000000000000000e+00 -4.5663763773498200e-01  6.8993919544483466e+00 0.0000000000000000e+00 -4.9509736157034356e-01  6.9962748691378547e+00 0.0000000000000000e+00 -5.3085822889281820e-01  7.0933874546693518e+00 0.0000000000000000e+00 -5.7266024273097260e-01  7.1933900183302013e+00 0.0000000000000000e+00 -6.1896374458777803e-01  7.2915170064203183e+00 0.0000000000000000e+00 -6.5963280407883584e-01  7.3902084218363724e+00 0.0000000000000000e+00 -6.9902819224070856e-01  7.4856268271968309e+00 0.0000000000000000e+00 -7.3911835535172254e-01  7.5850547934750736e+00 0.0000000000000000e+00 -7.8273895227495560e-01  7.6811734255204938e+00 0.0000000000000000e+00 -8.2305404375015456e-01  7.7814735345157331e+00 0.0000000000000000e+00 -8.7456806747026739e-01  7.8778514979523724e+00 0.0000000000000000e+00 -9.1778456949416631e-01  7.9740622409381396e+00 0.0000000000000000e+00 -9.6000491672076937e-01  8.0754481762571988e+00 0.0000000000000000e+00 -1.0073726931336306e+00  8.1742715329107511e+00 0.0000000000000000e+00 -1.0556285506754235e+00  8.2688883064475966e+00 0.0000000000000000e+00 -1.0952181019586764e+00  8.3686549339418832e+00 0.0000000000000000e+00 -1.1474664709711957e+00  8.4642839486797641e+00 0.0000000000000000e+00 -1.1911710334243435e+00  8.5615516701158008e+00 0.0000000000000000e+00 -1.2352433829892162e+00  8.6593290795126592e+00 0.0000000000000000e+00 -1.2866506040447190e+00  8.7571742079210324e+00 0.0000000000000000e+00 -1.3404671952457388e+00  8.8524055172606477e+00 0.0000000000000000e+00 -1.3857248138832792e+00  8.9510504572140839e+00 0.0000000000000000e+00 -1.4388496994249282e+00  9.0461882395972815e+00 0.0000000000000000e+00 -1.4840297954270198e+00  9.1431858549782543e+00 0.0000000000000000e+00 -1.5304418199100203e+00  9.2395857833739878e+00 0.0000000000000000e+00 -1.5673260094929748e+00  9.3388893490910050e+00 0.0000000000000000e+00 -1.6018933330296079e+00  9.4458959582388218e+00 0.0000000000000000e+00 -1.6284159253175789e+00  9.5612370231799755e+00 0.0000000000000000e+00 -1.6505698082980433e+00  9.6860397445859352e+00 0.0000000000000000e+00 -1.6865286054780424e+00  9.8180087806415308e+00 0.0000000000000000e+00 -1.7396729005982410e+00  9.9163459828418770e+00 2.8845510464287849e-01 -1.8210009904936750e+00  9.8626136484337490e+00 5.4580881978554896e-01 -1.9216288987367200e+00  9.7776466542973068e+00 7.6841407827248975e-01 -2.0674808158655487e+00  9.6678407848273480e+00 9.3271197641398729e-01 -2.2469983817466876e+00  9.5415468950442808e+00 1.0448187515284488e+00 -2.4455034246391887e+00  9.3999481046126316e+00 1.1037546187929601e+00 -2.6414469400628637e+00  9.1778236122875949e+00 1.1075043358895758e+00 -2.7636812903537957e+00  9.0903883052187595e+00 1.0942924932815827e+00 -2.6942463973323392e+00  9.0043215970300796e+00 1.0838566764048969e+00 -2.6266421538809377e+00  8.9177964647262336e+00 1.0719141010672104e+00 -2.5573413575711368e+00  8.8331364864645767e+00 1.0626369017179087e+00 -2.4947129609408072e+00  8.7493751417629024e+00 1.0575641247163377e+00 -2.4348390255941466e+00  8.6658011833084085e+00 1.0524992771923121e+00 -2.3750441056520830e+00  8.5813480969066873e+00 1.0508660865943911e+00 -2.3165748424063968e+00  8.4959382649255915e+00 1.0491709573703902e+00 -2.2577878993474516e+00  8.4106857882447343e+00 1.0479976028045437e+00 -2.2011505514015455e+00  8.3240049068362936e+00 1.0480910372950842e+00 -2.1446048519977250e+00  8.2366810658707283e+00 1.0511219012908779e+00 -2.0918449807176658e+00  8.1483609835876667e+00 1.0509490535395523e+00 -2.0381701346003576e+00  8.0593898729741404e+00 1.0506327488119145e+00 -1.9863149154896991e+00  7.9705579473934041e+00 1.0529335489710594e+00 -1.9390242306774932e+00  7.8783962944317265e+00 1.0519613229898379e+00 -1.8898931114536697e+00  7.7890437909432935e+00 1.0533913661261667e+00 -1.8396061879770029e+00  7.6984209354878024e+00 1.0561686586523142e+00 -1.7913848738207667e+00  7.6081253864005989e+00 1.0572322858365915e+00 -1.7450605196593822e+00  7.5170548180241177e+00 1.0596134983934806e+00 -1.6983647736308896e+00  7.4257299203894602e+00 1.0611434420435348e+00 -1.6518263401277704e+00  7.3338826458543798e+00 1.0616377780331432e+00 -1.6054307278402962e+00  7.2414559064898993e+00 1.0634329814150221e+00 -1.5617418635512808e+00  7.1492476861235268e+00 1.0607601054751215e+00 -1.5186877570527157e+00  7.0569788434133400e+00 1.0620633504973558e+00 -1.4781762104516603e+00  6.9644776095632670e+00 1.0628084185521312e+00 -1.4375333015969887e+00  6.8713357203834651e+00 1.0632723705775604e+00 -1.3975730924101344e+00  6.7782013395335374e+00 1.0628434068090671e+00 -1.3582298641016828e+00  6.6849780020477461e+00 1.0642223915462712e+00 -1.3202278471605806e+00  6.5917383419688509e+00 1.0630854378608223e+00 -1.2810345083971895e+00  6.4982428375182320e+00 1.0635095335317992e+00 -1.2434049896275219e+00  6.4048308096084403e+00 1.0648943350501632e+00 -1.2069540990094645e+00  6.3113952283578687e+00 1.0630722702972357e+00 -1.1704538651053606e+00  6.2176373006922265e+00 1.0617761692629524e+00 -1.1347861045409617e+00  6.1242348007581189e+00 1.0612748645828369e+00 -1.0999432938088409e+00  6.0307648988394806e+00 1.0603561506855768e+00 -1.0651091156160957e+00  5.9375562013776921e+00 1.0596079829299427e+00 -1.0305706624194788e+00  5.8439285020804759e+00 1.0615455364880915e+00 -9.9679307395095929e-01  5.7502080894710854e+00 1.0631671868564805e+00 -9.6437930842962738e-01  5.6567238480516684e+00 1.0606079554571208e+00 -9.3161916153296698e-01  5.5629591460137640e+00 1.0599352430439992e+00 -8.9975135447097310e-01  5.4693137324720622e+00 1.0611530360680359e+00 -8.6907213355312563e-01  5.3761430466471998e+00 1.0589313687050987e+00 -8.3717236980868959e-01  5.2824161362173507e+00 1.0598612322787113e+00 -8.0658827949449918e-01  5.1887077979525920e+00 1.0609725847135629e+00 -7.7710384063572380e-01  5.0951446588457880e+00 1.0603809113336256e+00 -7.4694175924081274e-01  5.0021149068301654e+00 1.0604877870145450e+00 -7.1806031154344141e-01  4.9084092295373996e+00 1.0616982049501233e+00 -6.9012785797350351e-01  4.8146610339207196e+00 1.0603456008094558e+00 -6.6075006465516162e-01  4.7203453120570380e+00 1.0612172457732023e+00 -6.3183344934634300e-01  4.6264179443284661e+00 1.0620716841809619e+00 -6.0618142643399020e-01  4.5318288563931333e+00 1.0631081561348537e+00 -5.8197343882926134e-01  4.4371780860546108e+00 1.0606337261723477e+00 -5.5703873891830480e-01  4.3441340713717445e+00 1.0620071238057964e+00 -5.3175436762628103e-01  4.2504597872000671e+00 1.0620790949195680e+00 -5.0895895274853820e-01  4.1561479119793798e+00 1.0622082286363934e+00 -4.8499859700568643e-01  4.0619706022007920e+00 1.0609555422018508e+00 -4.6070685426636260e-01  3.9677934652249780e+00 1.0625677653249270e+00 -4.3867233864521588e-01  3.8740847056288490e+00 1.0621726427647746e+00 -4.1771154645158265e-01  3.7806231044524004e+00 1.0622738993662397e+00 -3.9752810841381186e-01  3.6861618374357077e+00 1.0640978407299899e+00 -3.7825417721690668e-01  3.5919985444612532e+00 1.0620903677727107e+00 -3.5855361896953836e-01  3.4971851242815952e+00 1.0613747265195870e+00 -3.3933441649198576e-01  3.4028080308521780e+00 1.0621923819880206e+00 -3.2194828590784114e-01  3.3083985082812792e+00 1.0609518175948580e+00 -3.0363011813627500e-01  3.2139279331414627e+00 1.0574764798340863e+00 -2.8480433537512928e-01  3.1198199959221986e+00 1.0580463893675436e+00 -2.7019389765451113e-01  3.0255107117070996e+00 1.0568316253386656e+00 -2.5425909680782521e-01  2.9314398737771894e+00 1.0576897904551668e+00 -2.3842349170254967e-01  2.8375034489455087e+00 1.0578229221680757e+00 -2.2230235548746982e-01  2.7429893154942508e+00 1.0579743890288840e+00 -2.0613243661131084e-01  2.6482405927427868e+00 1.0580619130494104e+00 -1.9093459322770767e-01  2.5537618360751018e+00 1.0591384838527451e+00 -1.7750705875442127e-01  2.4594088088135169e+00 1.0592798095270082e+00 -1.6367921137661298e-01  2.3649150586549461e+00 1.0595237778510447e+00 -1.5006580163440336e-01  2.2707356344852516e+00 1.0583369411603796e+00 -1.3671213321240658e-01  2.1766658943326544e+00 1.0582855268298939e+00 -1.2525433097600888e-01  2.0826031471459765e+00 1.0596305893143145e+00 -1.1420888869397031e-01  1.9877543380669671e+00 1.0596849259814600e+00 -1.0325876069990651e-01  1.8928534560868926e+00 1.0586193251804621e+00 -9.1130873055594336e-02  1.7983149466797796e+00 1.0604235531818174e+00 -8.1511333965380406e-02  1.7032873866071274e+00 1.0614192980522146e+00 -7.1687553337261858e-02  1.6086007050546061e+00 1.0586997120922810e+00 -6.1037660416962056e-02  1.5139107592926007e+00 1.0590270669095772e+00 -5.3422621260310242e-02  1.4197333011742082e+00 1.0586382594914301e+00 -4.6501118131149828e-02  1.3254072935158709e+00 1.0590770855224507e+00 -3.9162873466869801e-02  1.2310060103689426e+00 1.0583952388220672e+00 -3.0754065244520602e-02  1.1365306426081419e+00 1.0603845563269838e+00 -2.5606831486941824e-02  1.0419492519075577e+00 1.0608609287701418e+00 -2.0246252783319034e-02  9.4723656043333526e-01 1.0606837386166788e+00 -1.5019041542677069e-02  8.5218001355715234e-01 1.0598785026681925e+00 -1.0833357143297436e-02  7.5745102591616342e-01 1.0592488473726422e+00 -7.7587571542798587e-03  6.6239384941364399e-01 1.0590979158470035e+00 -5.1131515572671558e-03  5.6709548355122574e-01 1.0578106061194694e+00 -1.6672842641823277e-03  4.7249657159234121e-01 1.0565728602943851e+00 -2.7218445928210410e-05  3.7773276994786970e-01 1.0569412346192524e+00 -5.0236621402814858e-04  2.8302385099732413e-01 1.0538321016141594e+00 1.0755604454538360e-04  1.8844572575458343e-01 1.0528440770994296e+00 0.0000000000000000e+00  9.4066179074159081e-02 1.0504279999991875e+00 0.0000000000000000e+00  9.2926116286056804e+00 9.5319706567051687e-01 -2.7893209466807827e+00  9.3161688529237328e+00 7.7067493885533001e-01 -2.7622568697195939e+00  9.3430837193777219e+00 5.9277984158597707e-01 -2.7419895728353669e+00  9.3545310545631750e+00 3.9056792748474500e-01 -2.7322545666158842e+00  9.3707118139069241e+00 1.9097221100095405e-01 -2.7208228402526711e+00  9.2964415025767710e+00 0.0000000000000000e+00 -2.6465316463177779e+00  9.2090792195858953e+00 0.0000000000000000e+00 -2.5888502649495249e+00  9.1189190228046844e+00 0.0000000000000000e+00 -2.5261860847613091e+00  9.0262075489468536e+00 0.0000000000000000e+00 -2.4712623695080218e+00  8.9342691489122465e+00 0.0000000000000000e+00 -2.4222378879709310e+00  8.8398979422296655e+00 0.0000000000000000e+00 -2.3685154569974936e+00  8.7478903205695140e+00 0.0000000000000000e+00 -2.3219525392891613e+00  8.6521507721714510e+00 0.0000000000000000e+00 -2.2755209964971495e+00  8.5560908086915948e+00 0.0000000000000000e+00 -2.2213869518113776e+00  8.4614418356738508e+00 0.0000000000000000e+00 -2.1817932295737208e+00  8.3665544505792795e+00 0.0000000000000000e+00 -2.1369221093068713e+00  8.2735285118600252e+00 0.0000000000000000e+00 -2.0878332008457101e+00  8.1800088979640755e+00 0.0000000000000000e+00 -2.0363960131903420e+00  8.0842227595659750e+00 0.0000000000000000e+00 -1.9859006061302569e+00  7.9913947278992721e+00 0.0000000000000000e+00 -1.9478192747082710e+00  7.8992947823436337e+00 0.0000000000000000e+00 -1.9049073864243362e+00  7.8072357875200513e+00 0.0000000000000000e+00 -1.8563604265088629e+00  7.7118016983542699e+00 0.0000000000000000e+00 -1.8067669495923808e+00  7.6164246694095636e+00 0.0000000000000000e+00 -1.7727042732636054e+00  7.5239362178475861e+00 0.0000000000000000e+00 -1.7256972223430429e+00  7.4300369859574014e+00 0.0000000000000000e+00 -1.6788857565814754e+00  7.3388331664547817e+00 0.0000000000000000e+00 -1.6402385839980247e+00  7.2453682209947274e+00 0.0000000000000000e+00 -1.5921519074843786e+00  7.1507822698965882e+00 0.0000000000000000e+00 -1.5552023669080284e+00  7.0593884145812664e+00 0.0000000000000000e+00 -1.5135055411059266e+00  6.9665341562500016e+00 0.0000000000000000e+00 -1.4689026351032686e+00  6.8715984141145068e+00 0.0000000000000000e+00 -1.4265333736200123e+00  6.7770993642065251e+00 0.0000000000000000e+00 -1.3931899134330212e+00  6.6834302178592901e+00 0.0000000000000000e+00 -1.3523646608007238e+00  6.5895283446333348e+00 0.0000000000000000e+00 -1.3179567729930564e+00  6.4988380736299449e+00 0.0000000000000000e+00 -1.2833794490396291e+00  6.4063216724671310e+00 0.0000000000000000e+00 -1.2440267148651349e+00  6.3126468816472636e+00 0.0000000000000000e+00 -1.1978984963320725e+00  6.2176672627662875e+00 0.0000000000000000e+00 -1.1666089514210309e+00  6.1227831623014781e+00 0.0000000000000000e+00 -1.1241039079684625e+00  6.0307545968332663e+00 0.0000000000000000e+00 -1.0973511244312195e+00  5.9366814585559773e+00 0.0000000000000000e+00 -1.0589710475770446e+00  5.8402093375294077e+00 0.0000000000000000e+00 -1.0213766939618050e+00  5.7460324773360334e+00 0.0000000000000000e+00 -9.9189823336423577e-01  5.6539660642056138e+00 0.0000000000000000e+00 -9.5414474428188301e-01  5.5624398345632269e+00 0.0000000000000000e+00 -9.2908866978029925e-01  5.4711055362318595e+00 0.0000000000000000e+00 -8.9346095301804118e-01  5.3761343967286823e+00 0.0000000000000000e+00 -8.5820443866320339e-01  5.2852141670645851e+00 0.0000000000000000e+00 -8.3672990019027049e-01  5.1927738450208567e+00 0.0000000000000000e+00 -8.0631091904090924e-01  5.0981854465141678e+00 0.0000000000000000e+00 -7.6907557329607268e-01  5.0044991082995365e+00 0.0000000000000000e+00 -7.4609991565064593e-01  4.9098013018464064e+00 0.0000000000000000e+00 -7.1605937305090583e-01  4.8135970680565183e+00 0.0000000000000000e+00 -6.9328003596789545e-01  4.7208134100607442e+00 0.0000000000000000e+00 -6.6624105676567358e-01  4.6269088925062052e+00 0.0000000000000000e+00 -6.4323071847572211e-01  4.5320908520892411e+00 0.0000000000000000e+00 -6.1154621455431424e-01  4.43