<?xml version="1.0"?>
<VTKFile type="UnstructuredGrid"  version="0.1"  >
<UnstructuredGrid>
<Piece  NumberOfPoints="3069" NumberOfCells="12882">
<Points>
<DataArray  type="Float64"  NumberOfComponents="3"  format="ascii">0 0 0  0 0 4  0 5.65685415 0  50 0 4  50 5.65685415 0  50 0 0  0 0 1  0 0 2  0 0 3  0 1.04967844 3.90746784  0 2.0669806 3.632725  0 3.02052855 3.18424606  0 3.88091111 2.5758636  0 4.62159061 1.82634306  0 5.21972132 0.958802283  0 4.71404505 0  0 3.77123618 0  0 2.82842708 0  0 1.88561809 0  0 0.942809045 0  0.5 0 4  1 0 4  1.5 0 4  2 0 4  2.5 0 4  3 0 4  3.5 0 4  4 0 4  4.5 0 4  5 0 4  5.5 0 4  6 0 4  6.5 0 4  7 0 4  7.5 0 4  8 0 4  8.5 0 4  9 0 4  9.5 0 4  10 0 4  10.5 0 4  11 0 4  11.5 0 4  12 0 4  12.5 0 4  13 0 4  13.5 0 4  14 0 4  14.5 0 4  15 0 4  15.5 0 4  16 0 4  16.5 0 4  17 0 4  17.5 0 4  18 0 4  18.5 0 4  19 0 4  19.5 0 4  20 0 4  20.5 0 4  21 0 4  21.5 0 4  22 0 4  22.5 0 4  23 0 4  23.5 0 4  24 0 4  24.5 0 4  25 0 4  25.5 0 4  26 0 4  26.5 0 4  27 0 4  27.5 0 4  28 0 4  28.5 0 4  29 0 4  29.5 0 4  30 0 4  30.5 0 4  31 0 4  31.5 0 4  32 0 4  32.5 0 4  33 0 4  33.5 0 4  34 0 4  34.5 0 4  35 0 4  35.5 0 4  36 0 4  36.5 0 4  37 0 4  37.5 0 4  38 0 4  38.5 0 4  39 0 4  39.5 0 4  40 0 4  40.5 0 4  41 0 4  41.5 0 4  42 0 4  42.5 0 4  43 0 4  43.5 0 4  44 0 4  44.5 0 4  45 0 4  45.5 0 4  46 0 4  46.5 0 4  47 0 4  47.5 0 4  48 0 4  48.5 0 4  49 0 4  49.5 0 4  50 1.04967844 3.90746784  50 2.0669806 3.632725  50 3.02052855 3.18424606  50 3.88091111 2.5758636  50 4.62159061 1.82634306  50 5.21972132 0.958802283  49.5 5.65685415 0  49 5.65685415 0  48.5 5.65685415 0  48 5.65685415 0  47.5 5.65685415 0  47 5.65685415 0  46.5 5.65685415 0  46 5.65685415 0  45.5 5.65685415 0  45 5.65685415 0  44.5 5.65685415 0  44 5.65685415 0  43.5 5.65685415 0  43 5.65685415 0  42.5 5.65685415 0  42 5.65685415 0  41.5 5.65685415 0  41 5.65685415 0  40.5 5.65685415 0  40 5.65685415 0  39.5 5.65685415 0  39 5.65685415 0  38.5 5.65685415 0  38 5.65685415 0  37.5 5.65685415 0  37 5.65685415 0  36.5 5.65685415 0  36 5.65685415 0  35.5 5.65685415 0  35 5.65685415 0  34.5 5.65685415 0  34 5.65685415 0  33.5 5.65685415 0  33 5.65685415 0  32.5 5.65685415 0  32 5.65685415 0  31.5 5.65685415 0  31 5.65685415 0  30.5 5.65685415 0  30 5.65685415 0  29.5 5.65685415 0  29 5.65685415 0  28.5 5.65685415 0  28 5.65685415 0  27.5 5.65685415 0  27 5.65685415 0  26.5 5.65685415 0  26 5.65685415 0  25.5 5.65685415 0  25 5.65685415 0  24.5 5.65685415 0  24 5.65685415 0  23.5 5.65685415 0  23 5.65685415 0  22.5 5.65685415 0  22 5.65685415 0  21.5 5.65685415 0  21 5.65685415 0  20.5 5.65685415 0  20 5.65685415 0  19.5 5.65685415 0  19 5.65685415 0  18.5 5.65685415 0  18 5.65685415 0  17.5 5.65685415 0  17 5.65685415 0  16.5 5.65685415 0  16 5.65685415 0  15.5 5.65685415 0  15 5.65685415 0  14.5 5.65685415 0  14 5.65685415 0  13.5 5.65685415 0  13 5.65685415 0  12.5 5.65685415 0  12 5.65685415 0  11.5 5.65685415 0  11 5.65685415 0  10.5 5.65685415 0  10 5.65685415 0  9.5 5.65685415 0  9 5.65685415 0  8.5 5.65685415 0  8 5.65685415 0  7.5 5.65685415 0  7 5.65685415 0  6.5 5.65685415 0  6 5.65685415 0  5.5 5.65685415 0  5 5.65685415 0  4.5 5.65685415 0  4 5.65685415 0  3.5 5.65685415 0  3 5.65685415 0  2.5 5.65685415 0  2 5.65685415 0  1.5 5.65685415 0  1 5.65685415 0  0.5 5.65685415 0  50 4.71404505 0  50 3.77123618 0  50 2.82842708 0  50 1.88561809 0  50 0.942809045 0  49.5 0 0  49 0 0  48.5 0 0  48 0 0  47.5 0 0  47 0 0  46.5 0 0  46 0 0  45.5 0 0  45 0 0  44.5 0 0  44 0 0  43.5 0 0  43 0 0  42.5 0 0  42 0 0  41.5 0 0  41 0 0  40.5 0 0  40 0 0  39.5 0 0  39 0 0  38.5 0 0  38 0 0  37.5 0 0  37 0 0  36.5 0 0  36 0 0  35.5 0 0  35 0 0  34.5 0 0  34 0 0  33.5 0 0  33 0 0  32.5 0 0  32 0 0  31.5 0 0  31 0 0  30.5 0 0  30 0 0  29.5 0 0  29 0 0  28.5 0 0  28 0 0  27.5 0 0  27 0 0  26.5 0 0  26 0 0  25.5 0 0  25 0 0  24.5 0 0  24 0 0  23.5 0 0  23 0 0  22.5 0 0  22 0 0  21.5 0 0  21 0 0  20.5 0 0  20 0 0  19.5 0 0  19 0 0  18.5 0 0  18 0 0  17.5 0 0  17 0 0  16.5 0 0  16 0 0  15.5 0 0  15 0 0  14.5 0 0  14 0 0  13.5 0 0  13 0 0  12.5 0 0  12 0 0  11.5 0 0  11 0 0  10.5 0 0  10 0 0  9.5 0 0  9 0 0  8.5 0 0  8 0 0  7.5 0 0  7 0 0  6.5 0 0  6 0 0  5.5 0 0  5 0 0  4.5 0 0  4 0 0  3.5 0 0  3 0 0  2.5 0 0  2 0 0  1.5 0 0  1 0 0  0.5 0 0  50 0 1  50 0 2  50 0 3  0 2.33524275 0.893602192  0 2.87561393 1.93323028  0 4.2367816 0.876864135  0 2.00050235 2.65534091  0 0.981494486 2.34323239  0 3.78543234 1.61830366  0 3.30545568 0.887000024  0 0.812916458 1.58408713  0 1.71948838 1.71268857  0 1.28267908 0.8650629520000001  0 1.21973121 3.10775328  0.5 5.21972132 0.958802223  0.5 4.62159061 1.82634306  0.5 3.88091111 2.5758636  0.5 3.02052855 3.18424606  0.5 2.0669806 3.632725  0.5 1.04967844 3.90746784  1 5.21972132 0.958802223  1 4.62159061 1.82634306  1 3.88091111 2.5758636  1 3.02052855 3.18424606  1 2.0669806 3.632725  1 1.04967844 3.90746784  1.5 5.21972132 0.958802223  1.5 4.62159061 1.82634306  1.5 3.88091111 2.5758636  1.5 3.02052855 3.18424606  1.5 2.0669806 3.632725  1.5 1.04967844 3.90746784  2 5.21972132 0.958802223  2 4.62159061 1.82634306  2 3.88091111 2.5758636  2 3.02052855 3.18424606  2 2.0669806 3.632725  2 1.04967844 3.90746784  2.5 5.21972132 0.958802223  2.5 4.62159061 1.82634306  2.5 3.88091111 2.5758636  2.5 3.02052855 3.18424606  2.5 2.0669806 3.632725  2.5 1.04967844 3.90746784  3 5.21972132 0.958802223  3 4.62159061 1.82634306  3 3.88091111 2.5758636  3 3.02052855 3.18424606  3 2.0669806 3.632725  3 1.04967844 3.90746784  3.5 5.21972132 0.958802223  3.5 4.62159061 1.82634306  3.5 3.88091111 2.5758636  3.5 3.02052855 3.18424606  3.5 2.0669806 3.632725  3.5 1.04967844 3.90746784  4 5.21972132 0.958802223  4 4.62159061 1.82634306  4 3.88091111 2.5758636  4 3.02052855 3.18424606  4 2.0669806 3.632725  4 1.04967844 3.90746784  4.5 5.21972132 0.958802223  4.5 4.62159061 1.82634306  4.5 3.88091111 2.5758636  4.5 3.02052855 3.18424606  4.5 2.0669806 3.632725  4.5 1.04967844 3.90746784  5 5.21972132 0.958802223  5 4.62159061 1.82634306  5 3.88091111 2.5758636  5 3.02052855 3.18424606  5 2.0669806 3.632725  5 1.04967844 3.90746784  5.5 5.21972132 0.958802223  5.5 4.62159061 1.82634306  5.5 3.88091111 2.5758636  5.5 3.02052855 3.18424606  5.5 2.0669806 3.632725  5.5 1.04967844 3.90746784  6 5.21972132 0.958802223  6 4.62159061 1.82634306  6 3.88091111 2.5758636  6 3.02052855 3.18424606  6 2.0669806 3.632725  6 1.04967844 3.90746784  6.5 5.21972132 0.958802223  6.5 4.62159061 1.82634306  6.5 3.88091111 2.5758636  6.5 3.02052855 3.18424606  6.5 2.0669806 3.632725  6.5 1.04967844 3.90746784  7 5.21972132 0.958802223  7 4.62159061 1.82634306  7 3.88091111 2.5758636  7 3.02052855 3.18424606  7 2.0669806 3.632725  7 1.04967844 3.90746784  7.5 5.21972132 0.958802223  7.5 4.62159061 1.82634306  7.5 3.88091111 2.5758636  7.5 3.02052855 3.18424606  7.5 2.0669806 3.632725  7.5 1.04967844 3.90746784  8 5.21972132 0.958802223  8 4.62159061 1.82634306  8 3.88091111 2.5758636  8 3.02052855 3.18424606  8 2.0669806 3.632725  8 1.04967844 3.90746784  8.5 5.21972132 0.958802223  8.5 4.62159061 1.82634306  8.5 3.88091111 2.5758636  8.5 3.02052855 3.18424606  8.5 2.0669806 3.632725  8.5 1.04967844 3.90746784  9 5.21972132 0.958802223  9 4.62159061 1.82634306  9 3.88091111 2.5758636  9 3.02052855 3.18424606  9 2.0669806 3.632725  9 1.04967844 3.90746784  9.5 5.21972132 0.958802223  9.5 4.62159061 1.82634306  9.5 3.88091111 2.5758636  9.5 3.02052855 3.18424606  9.5 2.0669806 3.632725  9.5 1.04967844 3.90746784  10 5.21972132 0.958802223  10 4.62159061 1.82634306  10 3.88091111 2.5758636  10 3.02052855 3.18424606  10 2.0669806 3.632725  10 1.04967844 3.90746784  10.5 5.21972132 0.958802223  10.5 4.62159061 1.82634306  10.5 3.88091111 2.5758636  10.5 3.02052855 3.18424606  10.5 2.0669806 3.632725  10.5 1.04967844 3.90746784  11 5.21972132 0.958802223  11 4.62159061 1.82634306  11 3.88091111 2.5758636  11 3.02052855 3.18424606  11 2.0669806 3.632725  11 1.04967844 3.90746784  11.5 5.21972132 0.958802223  11.5 4.62159061 1.82634306  11.5 3.88091111 2.5758636  11.5 3.02052855 3.18424606  11.5 2.0669806 3.632725  11.5 1.04967844 3.90746784  12 5.21972132 0.958802223  12 4.62159061 1.82634306  12 3.88091111 2.5758636  12 3.02052855 3.18424606  12 2.0669806 3.632725  12 1.04967844 3.90746784  12.5 5.21972132 0.958802223  12.5 4.62159061 1.82634306  12.5 3.88091111 2.5758636  12.5 3.02052855 3.18424606  12.5 2.0669806 3.632725  12.5 1.04967844 3.90746784  13 5.21972132 0.958802223  13 4.62159061 1.82634306  13 3.88091111 2.5758636  13 3.02052855 3.18424606  13 2.0669806 3.632725  13 1.04967844 3.90746784  13.5 5.21972132 0.958802223  13.5 4.62159061 1.82634306  13.5 3.88091111 2.5758636  13.5 3.02052855 3.18424606  13.5 2.0669806 3.632725  13.5 1.04967844 3.90746784  14 5.21972132 0.958802223  14 4.62159061 1.82634306  14 3.88091111 2.5758636  14 3.02052855 3.18424606  14 2.0669806 3.632725  14 1.04967844 3.90746784  14.5 5.21972132 0.958802223  14.5 4.62159061 1.82634306  14.5 3.88091111 2.5758636  14.5 3.02052855 3.18424606  14.5 2.0669806 3.632725  14.5 1.04967844 3.90746784  15 5.21972132 0.958802223  15 4.62159061 1.82634306  15 3.88091111 2.5758636  15 3.02052855 3.18424606  15 2.0669806 3.632725  15 1.04967844 3.90746784  15.5 5.21972132 0.958802223  15.5 4.62159061 1.82634306  15.5 3.88091111 2.5758636  15.5 3.02052855 3.18424606  15.5 2.0669806 3.632725  15.5 1.04967844 3.90746784  16 5.21972132 0.958802223  16 4.62159061 1.82634306  16 3.88091111 2.5758636  16 3.02052855 3.18424606  16 2.0669806 3.632725  16 1.04967844 3.90746784  16.5 5.21972132 0.958802223  16.5 4.62159061 1.82634306  16.5 3.88091111 2.5758636  16.5 3.02052855 3.18424606  16.5 2.0669806 3.632725  16.5 1.04967844 3.90746784  17 5.21972132 0.958802223  17 4.62159061 1.82634306  17 3.88091111 2.5758636  17 3.02052855 3.18424606  17 2.0669806 3.632725  17 1.04967844 3.90746784  17.5 5.21972132 0.958802223  17.5 4.62159061 1.82634306  17.5 3.88091111 2.5758636  17.5 3.02052855 3.18424606  17.
[...]
<PointData  Vectors="f_261141-0"> 
<DataArray  type="Float64"  Name="f_261141-0"  NumberOfComponents="3" format="ascii">0.0000000000000000e+00 0.0000000000000000e+00 0.0000000000000000e+00  0.0000000000000000e+00 0.0000000000000000e+00 4.4659937732448490e-01  0.0000000000000000e+00 7.5153666348342207e-01 0.0000000000000000e+00  5.6985220180798164e+00 0.0000000000000000e+00 4.0542091523400172e+00  6.4968767390698714e+00 6.4663979311891751e-01 3.8961147480216409e+00  6.3641128283968591e+00 0.0000000000000000e+00 3.7716234636531443e+00  0.0000000000000000e+00 0.0000000000000000e+00 1.3435934107110001e-01  0.0000000000000000e+00 0.0000000000000000e+00 2.3739303684624821e-01  0.0000000000000000e+00 0.0000000000000000e+00 3.1848917224847406e-01  0.0000000000000000e+00 9.6610587161522918e-02 4.5125166308136366e-01  0.0000000000000000e+00 2.2105456947549337e-01 4.5399861439069228e-01  0.0000000000000000e+00 3.4568553203569868e-01 4.1376569218635995e-01  0.0000000000000000e+00 4.6416091513531588e-01 3.4599815715929783e-01  0.0000000000000000e+00 5.9026877052348614e-01 2.5664660932091077e-01  0.0000000000000000e+00 6.9544997210175419e-01 1.3967817308636624e-01  0.0000000000000000e+00 6.2141079689356649e-01 0.0000000000000000e+00  0.0000000000000000e+00 4.8054929143741043e-01 0.0000000000000000e+00  0.0000000000000000e+00 3.3977124150686622e-01 0.0000000000000000e+00  0.0000000000000000e+00 2.1605936050974084e-01 0.0000000000000000e+00  0.0000000000000000e+00 1.0552969618015971e-01 0.0000000000000000e+00  5.9793816448865479e-02 0.0000000000000000e+00 4.4894784810649313e-01  1.1676600818491230e-01 0.0000000000000000e+00 4.4921730396658371e-01  1.7621536629591622e-01 0.0000000000000000e+00 4.5146903254162840e-01  2.3641153324007294e-01 0.0000000000000000e+00 4.5322266791889171e-01  2.9716829457540905e-01 0.0000000000000000e+00 4.5636094509994879e-01  3.5659611130019025e-01 0.0000000000000000e+00 4.6028103875947640e-01  4.1717522359028469e-01 0.0000000000000000e+00 4.6815653997513995e-01  4.7711461799258686e-01 0.0000000000000000e+00 4.7325387163120664e-01  5.3641825968727863e-01 0.0000000000000000e+00 4.8533946643468195e-01  5.9620007565745170e-01 0.0000000000000000e+00 4.9410301521013955e-01  6.5646561763420197e-01 0.0000000000000000e+00 5.0583366602844859e-01  7.1746961100183271e-01 0.0000000000000000e+00 5.0661545377617634e-01  7.7752831487347840e-01 0.0000000000000000e+00 5.1504591765998187e-01  8.3787861427019106e-01 0.0000000000000000e+00 5.2681296128047594e-01  8.9892544474425740e-01 0.0000000000000000e+00 5.3916186154043688e-01  9.5751370801436408e-01 0.0000000000000000e+00 5.4803186609570964e-01  1.0163677204349535e+00 0.0000000000000000e+00 5.5785358429568799e-01  1.0746316550752597e+00 0.0000000000000000e+00 5.7391649574000614e-01  1.1365925433838886e+00 0.0000000000000000e+00 5.8630849303002619e-01  1.1974090514494182e+00 0.0000000000000000e+00 5.9767378468743948e-01  1.2570222050109625e+00 0.0000000000000000e+00 6.1270666951470754e-01  1.3190526631176485e+00 0.0000000000000000e+00 6.3010128624891304e-01  1.3797942668993826e+00 0.0000000000000000e+00 6.4560248630308070e-01  1.4390951611643461e+00 0.0000000000000000e+00 6.6024085451840742e-01  1.4982736913607242e+00 0.0000000000000000e+00 6.7834976912791156e-01  1.5571683883977754e+00 0.0000000000000000e+00 6.9698172243872136e-01  1.6157131874912825e+00 0.0000000000000000e+00 7.1832383659968779e-01  1.6765722796916200e+00 0.0000000000000000e+00 7.3733465758593830e-01  1.7349426397282652e+00 0.0000000000000000e+00 7.5562827790904619e-01  1.7941709740960960e+00 0.0000000000000000e+00 7.8165294465454782e-01  1.8567155332037952e+00 0.0000000000000000e+00 7.9740325368806042e-01  1.9190206069893714e+00 0.0000000000000000e+00 8.2225792503359785e-01  1.9766462403887950e+00 0.0000000000000000e+00 8.5189931529201046e-01  2.0368114777972894e+00 0.0000000000000000e+00 8.7347946857284897e-01  2.0948158939318779e+00 0.0000000000000000e+00 9.0032536301159494e-01  2.1540484643551454e+00 0.0000000000000000e+00 9.2501350540919558e-01  2.2108121554533162e+00 0.0000000000000000e+00 9.5302334916616771e-01  2.2694254617151790e+00 0.0000000000000000e+00 9.7857556568298920e-01  2.3288698281539317e+00 0.0000000000000000e+00 1.0068522819538732e+00  2.3873385526746747e+00 0.0000000000000000e+00 1.0358766269421489e+00  2.4478634226542955e+00 0.0000000000000000e+00 1.0665599287720384e+00  2.5067996478193142e+00 0.0000000000000000e+00 1.0937447165658611e+00  2.5649797409052617e+00 0.0000000000000000e+00 1.1266007933690023e+00  2.6244068779979015e+00 0.0000000000000000e+00 1.1596985047432631e+00  2.6841524996286381e+00 0.0000000000000000e+00 1.1927052550927451e+00  2.7446004422392347e+00 0.0000000000000000e+00 1.2272820542675924e+00  2.8034004695932921e+00 0.0000000000000000e+00 1.2596382405135786e+00  2.8609769821175473e+00 0.0000000000000000e+00 1.2935936406238604e+00  2.9198556628379606e+00 0.0000000000000000e+00 1.3304723395026194e+00  2.9782627070109147e+00 0.0000000000000000e+00 1.3666863016348656e+00  3.0383027442010286e+00 0.0000000000000000e+00 1.4062250938544356e+00  3.0962087907383213e+00 0.0000000000000000e+00 1.4438652534924246e+00  3.1537318378629435e+00 0.0000000000000000e+00 1.4831911711934469e+00  3.2114890587888856e+00 0.0000000000000000e+00 1.5264734974444460e+00  3.2692630346939331e+00 0.0000000000000000e+00 1.5652992155249945e+00  3.3263248774600265e+00 0.0000000000000000e+00 1.6044537517758344e+00  3.3868783826842304e+00 0.0000000000000000e+00 1.6477494334746552e+00  3.4458578702638860e+00 0.0000000000000000e+00 1.6923267379323723e+00  3.5044775373824484e+00 0.0000000000000000e+00 1.7366952790805217e+00  3.5600541483439727e+00 0.0000000000000000e+00 1.7836713547956262e+00  3.6196198662804213e+00 0.0000000000000000e+00 1.8290016251143697e+00  3.6785487120220517e+00 0.0000000000000000e+00 1.8750621732027861e+00  3.7362077402520373e+00 0.0000000000000000e+00 1.9192292842644381e+00  3.7957326345650437e+00 0.0000000000000000e+00 1.9671919279611929e+00  3.8547000414705037e+00 0.0000000000000000e+00 2.0129750426359827e+00  3.9113017909251431e+00 0.0000000000000000e+00 2.0595559405416584e+00  3.9701344090310569e+00 0.0000000000000000e+00 2.1091049114225906e+00  4.0278639867615080e+00 0.0000000000000000e+00 2.1600100233288790e+00  4.0837555321720300e+00 0.0000000000000000e+00 2.2105275474938315e+00  4.1415670663693280e+00 0.0000000000000000e+00 2.2634551198989468e+00  4.1996845383521597e+00 0.0000000000000000e+00 2.3152817316372913e+00  4.2569034602149110e+00 0.0000000000000000e+00 2.3702843079480087e+00  4.3112470371793004e+00 0.0000000000000000e+00 2.4271032075792993e+00  4.3688068389191166e+00 0.0000000000000000e+00 2.4831318411329208e+00  4.4275640637308333e+00 0.0000000000000000e+00 2.5365692876169903e+00  4.4838148798957542e+00 0.0000000000000000e+00 2.5963850841500102e+00  4.5402136087449172e+00 0.0000000000000000e+00 2.6525521509946977e+00  4.5965550341743393e+00 0.0000000000000000e+00 2.7111196146636711e+00  4.6530011881980977e+00 0.0000000000000000e+00 2.7711462142359937e+00  4.7101521294915925e+00 0.0000000000000000e+00 2.8320648032712414e+00  4.7674292946766759e+00 0.0000000000000000e+00 2.8918621707281562e+00  4.8225067092434175e+00 0.0000000000000000e+00 2.9496497559267354e+00  4.8793497446773655e+00 0.0000000000000000e+00 3.0138970876902897e+00  4.9363450084111298e+00 0.0000000000000000e+00 3.0763387205343564e+00  4.9923851555688081e+00 0.0000000000000000e+00 3.1347478515040805e+00  5.0484586712098318e+00 0.0000000000000000e+00 3.1997678893516781e+00  5.1049079619629989e+00 0.0000000000000000e+00 3.2607601600191818e+00  5.1591123767545772e+00 0.0000000000000000e+00 3.3244968751841513e+00  5.2160159724482407e+00 0.0000000000000000e+00 3.3921493483652343e+00  5.2710098621563191e+00 0.0000000000000000e+00 3.4577112218197716e+00  5.3261951120232602e+00 0.0000000000000000e+00 3.5201370806012684e+00  5.3820253243468850e+00 0.0000000000000000e+00 3.5820120510276592e+00  5.4369054214530523e+00 0.0000000000000000e+00 3.6412948260886955e+00  5.4911956282879917e+00 0.0000000000000000e+00 3.6958656652432045e+00  5.5404286594037897e+00 0.0000000000000000e+00 3.7482839299475068e+00  5.5827768703721379e+00 0.0000000000000000e+00 3.7980497813183165e+00  5.6185670205936011e+00 0.0000000000000000e+00 3.8524003554297792e+00  5.6493438220965047e+00 0.0000000000000000e+00 3.9116003926944627e+00  5.6736619946619724e+00 0.0000000000000000e+00 3.9761044963602639e+00  5.7303881597708637e+00 5.1516038210194882e-02 4.0486464077470119e+00  5.7924651430932839e+00 1.1812148168573285e-01 4.0587772419089134e+00  5.8790708886972993e+00 1.9648230643321937e-01 4.0705477445776639e+00  5.9941032853032103e+00 2.9402873480637570e-01 4.0706033535424657e+00  6.1482341325853112e+00 4.0776164353644107e-01 4.0567068142069065e+00  6.3344765470639715e+00 5.3745364336536161e-01 3.9946761012369758e+00  6.4389765180273759e+00 6.6340653711829423e-01 3.8142710265734885e+00  6.3785371307721981e+00 6.8272268496828403e-01 3.7278939145147878e+00  6.3182532159859157e+00 6.9930499137594571e-01 3.6396401724498695e+00  6.2548122920727431e+00 7.1348873995700268e-01 3.5535374509541189e+00  6.1897307093557208e+00 7.2542259732986947e-01 3.4681826237989539e+00  6.1232037842869422e+00 7.3632151107631394e-01 3.3824883763088804e+00  6.0547264647661203e+00 7.4053730731110090e-01 3.2997567388450730e+00  5.9844692356740437e+00 7.4267688514989383e-01 3.2204079075211336e+00  5.9166917504832224e+00 7.4489914597203932e-01 3.1396443802110903e+00  5.8472200492479569e+00 7.4459076022075821e-01 3.0640692732092605e+00  5.7798650209583631e+00 7.4670006020494206e-01 2.9875206600617035e+00  5.7133721107080451e+00 7.5009874481760286e-01 2.9129698672421926e+00  5.6473917084992546e+00 7.5093404025012889e-01 2.8438898763882716e+00  5.5817426722942782e+00 7.5106638250894386e-01 2.7752485561395570e+00  5.5187394449552176e+00 7.4965840078105106e-01 2.7036937581949902e+00  5.4531300059467496e+00 7.4679099710514008e-01 2.6346368527909116e+00  5.3896434968584259e+00 7.4572612347691036e-01 2.5734411629450213e+00  5.3256081098695693e+00 7.4785981424132464e-01 2.5124523744567715e+00  5.2627197119351923e+00 7.5074552378678638e-01 2.4484258703753459e+00  5.1996248725212508e+00 7.5023762585793752e-01 2.3846344411002551e+00  5.1358195729706733e+00 7.4745331123417280e-01 2.3217065831918515e+00  5.0701777471860607e+00 7.4622614639897722e-01 2.2597425848295276e+00  5.0060916683363121e+00 7.4479489112978070e-01 2.1971440296356359e+00  4.9416381543928161e+00 7.4206976242345069e-01 2.1369759056747353e+00  4.8791142696669496e+00 7.4213644745911256e-01 2.0747557390269424e+00  4.8149759302303412e+00 7.3629831946631419e-01 2.0185267768923594e+00  4.7503916419207748e+00 7.3695154551287945e-01 1.9626407288336343e+00  4.6870366485918895e+00 7.3953929425290477e-01 1.9046036954001009e+00  4.6241858983665303e+00 7.3832180834638084e-01 1.8520737214849592e+00  4.5619886021149529e+00 7.4031742483278207e-01 1.7978159509908569e+00  4.4978154721409060e+00 7.3879251212892594e-01 1.7462451147158242e+00  4.4341356650790642e+00 7.3567432043282688e-01 1.6948118050127710e+00  4.3698113976404205e+00 7.3511213466355996e-01 1.6445314067223389e+00  4.3061735354685382e+00 7.3648744217481044e-01 1.5940644162052817e+00  4.2425416894311008e+00 7.3628390709307545e-01 1.5454130985710455e+00  4.1794950231665933e+00 7.3770230351765831e-01 1.4956452370110334e+00  4.1164237876892402e+00 7.3908725048221524e-01 1.4455272988791987e+00  4.0517038787748376e+00 7.3970677597076728e-01 1.3983863311699614e+00  3.9868183864573816e+00 7.3893976816402185e-01 1.3529120414173319e+00  3.9232212724329081e+00 7.4002833278819402e-01 1.3069738442025809e+00  3.8589855063632008e+00 7.3983367330064898e-01 1.2609782642537484e+00  3.7941276671362036e+00 7.3873935416105763e-01 1.2182906621577005e+00  3.7280095855116682e+00 7.3615506273380005e-01 1.1765093051649367e+00  3.6644662598962956e+00 7.3621776658110816e-01 1.1299211680111496e+00  3.6011163545622069e+00 7.3628443961017231e-01 1.0867080540917529e+00  3.5370225705703398e+00 7.3778105750351131e-01 1.0472587144429131e+00  3.4729294871060676e+00 7.4041157997480445e-01 1.0072340797447665e+00  3.4080274191298856e+00 7.3926245871326079e-01 9.7000791107455853e-01  3.3426374892149839e+00 7.3739714200276807e-01 9.3137620729940651e-01  3.2770592077695291e+00 7.3688015437630994e-01 8.9234572205550000e-01  3.2111397627621594e+00 7.3604781960370569e-01 8.5685059604246283e-01  3.1463146790010557e+00 7.4029834801258187e-01 8.1708098488373082e-01  3.0819661782425412e+00 7.3770524928682524e-01 7.8467657164046090e-01  3.0173636365213881e+00 7.3982168230707201e-01 7.4411922052597368e-01  2.9530710515501482e+00 7.3463304051227307e-01 7.0744754739890581e-01  2.8864444134541221e+00 7.3449851743127548e-01 6.7498538686234444e-01  2.8202326376092675e+00 7.3680690331477072e-01 6.4409103157833425e-01  2.7558300764061086e+00 7.3788835335352099e-01 6.1113812874165852e-01  2.6904037684506754e+00 7.3748501653548459e-01 5.8137514960005587e-01  2.6260052839274488e+00 7.3788556673618255e-01 5.5006995489715649e-01  2.5600292032695551e+00 7.3724088172666036e-01 5.2220783184029584e-01  2.4948531142825803e+00 7.3774588253379159e-01 4.9398694002671878e-01  2.4284524659181388e+00 7.3998161812330021e-01 4.6939054872815522e-01  2.3648156526620903e+00 7.3983603677871690e-01 4.4254221555604556e-01  2.2994130063778471e+00 7.4066274722426240e-01 4.1962142805960129e-01  2.2326767409902799e+00 7.3917351275337673e-01 3.9882060126223173e-01  2.1671235992753553e+00 7.4134127894430779e-01 3.7288367722733523e-01  2.1029315482175561e+00 7.4272212196746201e-01 3.4734523721348964e-01  2.0380522019228349e+00 7.4074550901483738e-01 3.2549628346862475e-01  1.9725903226932937e+00 7.4161149348651434e-01 3.0143722917181281e-01  1.9063072272926826e+00 7.3936033182043270e-01 2.8063575035148591e-01  1.8404645778710387e+00 7.4136585258264109e-01 2.5737415672765057e-01  1.7753152550145308e+00 7.4038412614983196e-01 2.3551262720338387e-01  1.7083356625380777e+00 7.3931356861001207e-01 2.1560138708083293e-01  1.6424215709726853e+00 7.3835725763016102e-01 1.9536360716845988e-01  1.5755560239684969e+00 7.3952934002087312e-01 1.7775194204835654e-01  1.5101974978131680e+00 7.4088618865485889e-01 1.6149023210090380e-01  1.4461631543723963e+00 7.4195096675715211e-01 1.4570881279473091e-01  1.3806306737503262e+00 7.4345291299151950e-01 1.3077222508869982e-01  1.3140276361088727e+00 7.4039261195055295e-01 1.1893237712218850e-01  1.2484694647122949e+00 7.4053244291306553e-01 1.0352331913643301e-01  1.1825820787769423e+00 7.4035533456853331e-01 9.2040573741465986e-02  1.1173921644351545e+00 7.3870748082077464e-01 8.0911754927461582e-02  1.0520265459843883e+00 7.4279938222881148e-01 6.6057187283384403e-02  9.8754362757964487e-01 7.4011706081299355e-01 5.2779148175332101e-02  9.2188398009855310e-01 7.4107583105031316e-01 4.1486847010186192e-02  8.5451848711252110e-01 7.3768751625953977e-01 3.4655766902503785e-02  7.8898012741559720e-01 7.3874938740232932e-01 2.3422217013700352e-02  7.2302320525976616e-01 7.3799273844824542e-01 1.7235669926067374e-02  6.5673653154119149e-01 7.3992135405383408e-01 1.1345666506877558e-02  5.9169366465504880e-01 7.4211525687256352e-01 4.7721152239863082e-03  5.2640325306215896e-01 7.4357347776881833e-01 7.2363579586738386e-04  4.6108123324257050e-01 7.4375577469827248e-01 -2.3671954374922294e-03  3.9373187574925023e-01 7.4704859932406253e-01 -1.1333085045576890e-03  3.2775819766314601e-01 7.4937552734738966e-01 -9.8157945116555977e-04  2.6243694396576134e-01 7.5047759977828443e-01 6.0678526374268558e-05  1.9609629857053681e-01 7.4790523376461593e-01 1.9132316781068745e-03  1.2947835763253809e-01 7.4860221788498560e-01 0.0000000000000000e+00  6.2863826687969929e-02 7.4772174037312356e-01 0.0000000000000000e+00  6.4682016666536128e+00 5.1557503335386456e-01 3.8596833881690094e+00  6.4425720149740764e+00 4.0320799399259472e-01 3.8263697011402344e+00  6.4135636321516456e+00 2.8911624000223785e-01 3.8007643659480017e+00  6.4003717116717853e+00 1.9373789271675315e-01 3.7947272490851440e+00  6.3783842074498054e+00 9.2427441393767087e-02 3.7782453251869499e+00  6.3052193186427319e+00 0.0000000000000000e+00 3.6808075013359312e+00  6.2494839493776011e+00 0.0000000000000000e+00 3.6041660190849361e+00  6.1932649338558017e+00 0.0000000000000000e+00 3.5233362555113197e+00  6.1358676286124139e+00 0.0000000000000000e+00 3.4480459838769759e+00  6.0768523940455026e+00 0.0000000000000000e+00 3.3775687717587357e+00  6.0186824223825655e+00 0.0000000000000000e+00 3.3087980700848640e+00  5.9591226888254427e+00 0.0000000000000000e+00 3.2417815498084015e+00  5.9025681551388649e+00 0.0000000000000000e+00 3.1742539728187511e+00  5.8452829885810429e+00 0.0000000000000000e+00 3.1048515830299452e+00  5.7837202771977028e+00 0.0000000000000000e+00 3.0462095456414340e+00  5.7258243974736232e+00 0.0000000000000000e+00 2.9816213589419855e+00  5.6667853671627126e+00 0.0000000000000000e+00 2.9141794895766204e+00  5.6078380880567371e+00 0.0000000000000000e+00 2.8474164187793281e+00  5.5465036160656780e+00 0.0000000000000000e+00 2.7858881093995773e+00  5.4854958941192926e+00 0.0000000000000000e+00 2.7261924558886168e+00  5.4248765175337939e+00 0.0000000000000000e+00 2.6649980103331590e+00  5.3648526062957034e+00 0.0000000000000000e+00 2.6008213931676707e+00  5.3048138214515452e+00 0.0000000000000000e+00 2.5371608200969815e+00  5.2429278624571696e+00 0.0000000000000000e+00 2.4816352703881193e+00  5.1831056732637162e+00 0.0000000000000000e+00 2.4211689247117993e+00  5.1209635203589166e+00 0.0000000000000000e+00 2.3608926894084488e+00  5.0571219586902565e+00 0.0000000000000000e+00 2.3054663339592136e+00  4.9948508680155310e+00 0.0000000000000000e+00 2.2441356441126570e+00  4.9320713664339495e+00 0.0000000000000000e+00 2.1893872368370380e+00  4.8698340517954435e+00 0.0000000000000000e+00 2.1306326394789719e+00  4.8079969644704974e+00 0.0000000000000000e+00 2.0719297593071593e+00  4.7459237921348212e+00 0.0000000000000000e+00 2.0140426009136387e+00  4.6810959790578153e+00 0.0000000000000000e+00 1.9640452878519443e+00  4.6166890960435438e+00 0.0000000000000000e+00 1.9091148538865814e+00  4.5527200679575319e+00 0.0000000000000000e+00 1.8576581904048126e+00  4.4881606182296672e+00 0.0000000000000000e+00 1.8073036814267101e+00  4.4264588196194765e+00 0.0000000000000000e+00 1.7535434846315190e+00  4.3654400220212910e+00 0.0000000000000000e+00 1.6969749853084581e+00  4.3018626495736214e+00 0.0000000000000000e+00 1.6481536217886985e+00  4.2381790338830996e+00 0.0000000000000000e+00 1.5965317925995675e+00  4.1736262370003425e+00 0.0000000000000000e+00 1.5513829223910827e+00  4.1098188947767076e+00 0.0000000000000000e+00 1.5018673555478983e+00  4.0474800173135135e+00 0.0000000000000000e+00 1.4540912502970678e+00  3.9828626943968146e+00 0.0000000000000000e+00 1.4096524303680700e+00  3.9180670573649570e+00 0.0000000000000000e+00 1.3600399081535859e+00  3.8526677698484537e+00 0.0000000000000000e+00 1.3181968873621750e+00  3.7898239613497302e+00 0.0000000000000000e+00 1.2693162052289282e+00  3.7244558579824445e+00 0.0000000000000000e+00 1.2250506597523696e+00  3.6587338403338836e+00 0.0000000000000000e+00 1.1860300418630638e+00  3.5941192520899148e+00 0.0000000000000000e+00 1.1441979878715565e+00  3.5295917421206804e+00 0.0000000000000000e+00 1.1009379982225043e+00  3.4634028963095935e+00 0.0000000000000000e+00 1.0644792799395144e+00  3.4011561485178823e+00 0.0000000000000000e+00 1.0220677674529908e+00  3.3356553353344141e+00 0.0000000000000000e+00 9.8632012333346764e-01  3.2712063543123504e+00 0.0000000000000000e+00 9.4619276865104196e-01  3.2065584268238183e+00 0.0000000000000000e+00 9.1136253275702617e-01  3.1424820716561066e+00 0.0000000000000000e+00 8.7329263096284182e-01  3.0779655860278345e+00 0.0000000000000000e+00 8.4045061656459097e-01  3.0151591468354915e+00 0.0000000000000000e+00 8.0028424879457172e-01  2.9509062445739782e+00 0.0000000000000000e+00 7.6606389325499935e-0