<?xml version="1.0"?>
<VTKFile type="UnstructuredGrid"  version="0.1"  >
<UnstructuredGrid>
<Piece  NumberOfPoints="3069" NumberOfCells="12882">
<Points>
<DataArray  type="Float64"  NumberOfComponents="3"  format="ascii">0 0 0  0 0 4  0 5.65685415 0  50 0 4  50 5.65685415 0  50 0 0  0 0 1  0 0 2  0 0 3  0 1.04967844 3.90746784  0 2.0669806 3.632725  0 3.02052855 3.18424606  0 3.88091111 2.5758636  0 4.62159061 1.82634306  0 5.21972132 0.958802283  0 4.71404505 0  0 3.77123618 0  0 2.82842708 0  0 1.88561809 0  0 0.942809045 0  0.5 0 4  1 0 4  1.5 0 4  2 0 4  2.5 0 4  3 0 4  3.5 0 4  4 0 4  4.5 0 4  5 0 4  5.5 0 4  6 0 4  6.5 0 4  7 0 4  7.5 0 4  8 0 4  8.5 0 4  9 0 4  9.5 0 4  10 0 4  10.5 0 4  11 0 4  11.5 0 4  12 0 4  12.5 0 4  13 0 4  13.5 0 4  14 0 4  14.5 0 4  15 0 4  15.5 0 4  16 0 4  16.5 0 4  17 0 4  17.5 0 4  18 0 4  18.5 0 4  19 0 4  19.5 0 4  20 0 4  20.5 0 4  21 0 4  21.5 0 4  22 0 4  22.5 0 4  23 0 4  23.5 0 4  24 0 4  24.5 0 4  25 0 4  25.5 0 4  26 0 4  26.5 0 4  27 0 4  27.5 0 4  28 0 4  28.5 0 4  29 0 4  29.5 0 4  30 0 4  30.5 0 4  31 0 4  31.5 0 4  32 0 4  32.5 0 4  33 0 4  33.5 0 4  34 0 4  34.5 0 4  35 0 4  35.5 0 4  36 0 4  36.5 0 4  37 0 4  37.5 0 4  38 0 4  38.5 0 4  39 0 4  39.5 0 4  40 0 4  40.5 0 4  41 0 4  41.5 0 4  42 0 4  42.5 0 4  43 0 4  43.5 0 4  44 0 4  44.5 0 4  45 0 4  45.5 0 4  46 0 4  46.5 0 4  47 0 4  47.5 0 4  48 0 4  48.5 0 4  49 0 4  49.5 0 4  50 1.04967844 3.90746784  50 2.0669806 3.632725  50 3.02052855 3.18424606  50 3.88091111 2.5758636  50 4.62159061 1.82634306  50 5.21972132 0.958802283  49.5 5.65685415 0  49 5.65685415 0  48.5 5.65685415 0  48 5.65685415 0  47.5 5.65685415 0  47 5.65685415 0  46.5 5.65685415 0  46 5.65685415 0  45.5 5.65685415 0  45 5.65685415 0  44.5 5.65685415 0  44 5.65685415 0  43.5 5.65685415 0  43 5.65685415 0  42.5 5.65685415 0  42 5.65685415 0  41.5 5.65685415 0  41 5.65685415 0  40.5 5.65685415 0  40 5.65685415 0  39.5 5.65685415 0  39 5.65685415 0  38.5 5.65685415 0  38 5.65685415 0  37.5 5.65685415 0  37 5.65685415 0  36.5 5.65685415 0  36 5.65685415 0  35.5 5.65685415 0  35 5.65685415 0  34.5 5.65685415 0  34 5.65685415 0  33.5 5.65685415 0  33 5.65685415 0  32.5 5.65685415 0  32 5.65685415 0  31.5 5.65685415 0  31 5.65685415 0  30.5 5.65685415 0  30 5.65685415 0  29.5 5.65685415 0  29 5.65685415 0  28.5 5.65685415 0  28 5.65685415 0  27.5 5.65685415 0  27 5.65685415 0  26.5 5.65685415 0  26 5.65685415 0  25.5 5.65685415 0  25 5.65685415 0  24.5 5.65685415 0  24 5.65685415 0  23.5 5.65685415 0  23 5.65685415 0  22.5 5.65685415 0  22 5.65685415 0  21.5 5.65685415 0  21 5.65685415 0  20.5 5.65685415 0  20 5.65685415 0  19.5 5.65685415 0  19 5.65685415 0  18.5 5.65685415 0  18 5.65685415 0  17.5 5.65685415 0  17 5.65685415 0  16.5 5.65685415 0  16 5.65685415 0  15.5 5.65685415 0  15 5.65685415 0  14.5 5.65685415 0  14 5.65685415 0  13.5 5.65685415 0  13 5.65685415 0  12.5 5.65685415 0  12 5.65685415 0  11.5 5.65685415 0  11 5.65685415 0  10.5 5.65685415 0  10 5.65685415 0  9.5 5.65685415 0  9 5.65685415 0  8.5 5.65685415 0  8 5.65685415 0  7.5 5.65685415 0  7 5.65685415 0  6.5 5.65685415 0  6 5.65685415 0  5.5 5.65685415 0  5 5.65685415 0  4.5 5.65685415 0  4 5.65685415 0  3.5 5.65685415 0  3 5.65685415 0  2.5 5.65685415 0  2 5.65685415 0  1.5 5.65685415 0  1 5.65685415 0  0.5 5.65685415 0  50 4.71404505 0  50 3.77123618 0  50 2.82842708 0  50 1.88561809 0  50 0.942809045 0  49.5 0 0  49 0 0  48.5 0 0  48 0 0  47.5 0 0  47 0 0  46.5 0 0  46 0 0  45.5 0 0  45 0 0  44.5 0 0  44 0 0  43.5 0 0  43 0 0  42.5 0 0  42 0 0  41.5 0 0  41 0 0  40.5 0 0  40 0 0  39.5 0 0  39 0 0  38.5 0 0  38 0 0  37.5 0 0  37 0 0  36.5 0 0  36 0 0  35.5 0 0  35 0 0  34.5 0 0  34 0 0  33.5 0 0  33 0 0  32.5 0 0  32 0 0  31.5 0 0  31 0 0  30.5 0 0  30 0 0  29.5 0 0  29 0 0  28.5 0 0  28 0 0  27.5 0 0  27 0 0  26.5 0 0  26 0 0  25.5 0 0  25 0 0  24.5 0 0  24 0 0  23.5 0 0  23 0 0  22.5 0 0  22 0 0  21.5 0 0  21 0 0  20.5 0 0  20 0 0  19.5 0 0  19 0 0  18.5 0 0  18 0 0  17.5 0 0  17 0 0  16.5 0 0  16 0 0  15.5 0 0  15 0 0  14.5 0 0  14 0 0  13.5 0 0  13 0 0  12.5 0 0  12 0 0  11.5 0 0  11 0 0  10.5 0 0  10 0 0  9.5 0 0  9 0 0  8.5 0 0  8 0 0  7.5 0 0  7 0 0  6.5 0 0  6 0 0  5.5 0 0  5 0 0  4.5 0 0  4 0 0  3.5 0 0  3 0 0  2.5 0 0  2 0 0  1.5 0 0  1 0 0  0.5 0 0  50 0 1  50 0 2  50 0 3  0 2.33524275 0.893602192  0 2.87561393 1.93323028  0 4.2367816 0.876864135  0 2.00050235 2.65534091  0 0.981494486 2.34323239  0 3.78543234 1.61830366  0 3.30545568 0.887000024  0 0.812916458 1.58408713  0 1.71948838 1.71268857  0 1.28267908 0.8650629520000001  0 1.21973121 3.10775328  0.5 5.21972132 0.958802223  0.5 4.62159061 1.82634306  0.5 3.88091111 2.5758636  0.5 3.02052855 3.18424606  0.5 2.0669806 3.632725  0.5 1.04967844 3.90746784  1 5.21972132 0.958802223  1 4.62159061 1.82634306  1 3.88091111 2.5758636  1 3.02052855 3.18424606  1 2.0669806 3.632725  1 1.04967844 3.90746784  1.5 5.21972132 0.958802223  1.5 4.62159061 1.82634306  1.5 3.88091111 2.5758636  1.5 3.02052855 3.18424606  1.5 2.0669806 3.632725  1.5 1.04967844 3.90746784  2 5.21972132 0.958802223  2 4.62159061 1.82634306  2 3.88091111 2.5758636  2 3.02052855 3.18424606  2 2.0669806 3.632725  2 1.04967844 3.90746784  2.5 5.21972132 0.958802223  2.5 4.62159061 1.82634306  2.5 3.88091111 2.5758636  2.5 3.02052855 3.18424606  2.5 2.0669806 3.632725  2.5 1.04967844 3.90746784  3 5.21972132 0.958802223  3 4.62159061 1.82634306  3 3.88091111 2.5758636  3 3.02052855 3.18424606  3 2.0669806 3.632725  3 1.04967844 3.90746784  3.5 5.21972132 0.958802223  3.5 4.62159061 1.82634306  3.5 3.88091111 2.5758636  3.5 3.02052855 3.18424606  3.5 2.0669806 3.632725  3.5 1.04967844 3.90746784  4 5.21972132 0.958802223  4 4.62159061 1.82634306  4 3.88091111 2.5758636  4 3.02052855 3.18424606  4 2.0669806 3.632725  4 1.04967844 3.90746784  4.5 5.21972132 0.958802223  4.5 4.62159061 1.82634306  4.5 3.88091111 2.5758636  4.5 3.02052855 3.18424606  4.5 2.0669806 3.632725  4.5 1.04967844 3.90746784  5 5.21972132 0.958802223  5 4.62159061 1.82634306  5 3.88091111 2.5758636  5 3.02052855 3.18424606  5 2.0669806 3.632725  5 1.04967844 3.90746784  5.5 5.21972132 0.958802223  5.5 4.62159061 1.82634306  5.5 3.88091111 2.5758636  5.5 3.02052855 3.18424606  5.5 2.0669806 3.632725  5.5 1.04967844 3.90746784  6 5.21972132 0.958802223  6 4.62159061 1.82634306  6 3.88091111 2.5758636  6 3.02052855 3.18424606  6 2.0669806 3.632725  6 1.04967844 3.90746784  6.5 5.21972132 0.958802223  6.5 4.62159061 1.82634306  6.5 3.88091111 2.5758636  6.5 3.02052855 3.18424606  6.5 2.0669806 3.632725  6.5 1.04967844 3.90746784  7 5.21972132 0.958802223  7 4.62159061 1.82634306  7 3.88091111 2.5758636  7 3.02052855 3.18424606  7 2.0669806 3.632725  7 1.04967844 3.90746784  7.5 5.21972132 0.958802223  7.5 4.62159061 1.82634306  7.5 3.88091111 2.5758636  7.5 3.02052855 3.18424606  7.5 2.0669806 3.632725  7.5 1.04967844 3.90746784  8 5.21972132 0.958802223  8 4.62159061 1.82634306  8 3.88091111 2.5758636  8 3.02052855 3.18424606  8 2.0669806 3.632725  8 1.04967844 3.90746784  8.5 5.21972132 0.958802223  8.5 4.62159061 1.82634306  8.5 3.88091111 2.5758636  8.5 3.02052855 3.18424606  8.5 2.0669806 3.632725  8.5 1.04967844 3.90746784  9 5.21972132 0.958802223  9 4.62159061 1.82634306  9 3.88091111 2.5758636  9 3.02052855 3.18424606  9 2.0669806 3.632725  9 1.04967844 3.90746784  9.5 5.21972132 0.958802223  9.5 4.62159061 1.82634306  9.5 3.88091111 2.5758636  9.5 3.02052855 3.18424606  9.5 2.0669806 3.632725  9.5 1.04967844 3.90746784  10 5.21972132 0.958802223  10 4.62159061 1.82634306  10 3.88091111 2.5758636  10 3.02052855 3.18424606  10 2.0669806 3.632725  10 1.04967844 3.90746784  10.5 5.21972132 0.958802223  10.5 4.62159061 1.82634306  10.5 3.88091111 2.5758636  10.5 3.02052855 3.18424606  10.5 2.0669806 3.632725  10.5 1.04967844 3.90746784  11 5.21972132 0.958802223  11 4.62159061 1.82634306  11 3.88091111 2.5758636  11 3.02052855 3.18424606  11 2.0669806 3.632725  11 1.04967844 3.90746784  11.5 5.21972132 0.958802223  11.5 4.62159061 1.82634306  11.5 3.88091111 2.5758636  11.5 3.02052855 3.18424606  11.5 2.0669806 3.632725  11.5 1.04967844 3.90746784  12 5.21972132 0.958802223  12 4.62159061 1.82634306  12 3.88091111 2.5758636  12 3.02052855 3.18424606  12 2.0669806 3.632725  12 1.04967844 3.90746784  12.5 5.21972132 0.958802223  12.5 4.62159061 1.82634306  12.5 3.88091111 2.5758636  12.5 3.02052855 3.18424606  12.5 2.0669806 3.632725  12.5 1.04967844 3.90746784  13 5.21972132 0.958802223  13 4.62159061 1.82634306  13 3.88091111 2.5758636  13 3.02052855 3.18424606  13 2.0669806 3.632725  13 1.04967844 3.90746784  13.5 5.21972132 0.958802223  13.5 4.62159061 1.82634306  13.5 3.88091111 2.5758636  13.5 3.02052855 3.18424606  13.5 2.0669806 3.632725  13.5 1.04967844 3.90746784  14 5.21972132 0.958802223  14 4.62159061 1.82634306  14 3.88091111 2.5758636  14 3.02052855 3.18424606  14 2.0669806 3.632725  14 1.04967844 3.90746784  14.5 5.21972132 0.958802223  14.5 4.62159061 1.82634306  14.5 3.88091111 2.5758636  14.5 3.02052855 3.18424606  14.5 2.0669806 3.632725  14.5 1.04967844 3.90746784  15 5.21972132 0.958802223  15 4.62159061 1.82634306  15 3.88091111 2.5758636  15 3.02052855 3.18424606  15 2.0669806 3.632725  15 1.04967844 3.90746784  15.5 5.21972132 0.958802223  15.5 4.62159061 1.82634306  15.5 3.88091111 2.5758636  15.5 3.02052855 3.18424606  15.5 2.0669806 3.632725  15.5 1.04967844 3.90746784  16 5.21972132 0.958802223  16 4.62159061 1.82634306  16 3.88091111 2.5758636  16 3.02052855 3.18424606  16 2.0669806 3.632725  16 1.04967844 3.90746784  16.5 5.21972132 0.958802223  16.5 4.62159061 1.82634306  16.5 3.88091111 2.5758636  16.5 3.02052855 3.18424606  16.5 2.0669806 3.632725  16.5 1.04967844 3.90746784  17 5.21972132 0.958802223  17 4.62159061 1.82634306  17 3.88091111 2.5758636  17 3.02052855 3.18424606  17 2.0669806 3.632725  17 1.04967844 3.90746784  17.5 5.21972132 0.958802223  17.5 4.62159061 1.82634306  17.5 3.88091111 2.5758636  17.5 3.02052855 3.18424606  17.
[...]
<PointData  Vectors="f_261141-0"> 
<DataArray  type="Float64"  Name="f_261141-0"  NumberOfComponents="3" format="ascii">0.0000000000000000e+00 0.0000000000000000e+00 0.0000000000000000e+00  0.0000000000000000e+00 0.0000000000000000e+00 8.0899709628550656e-02  0.0000000000000000e+00 2.0508534449747554e-01 0.0000000000000000e+00  1.0651707482619936e+00 0.0000000000000000e+00 2.8676336200663353e+00  1.6218356105464660e+00 1.5763119485675611e-01 2.9285032239450492e+00  1.5645517334515038e+00 0.0000000000000000e+00 2.8529366732982133e+00  0.0000000000000000e+00 0.0000000000000000e+00 4.4985333928497677e-02  0.0000000000000000e+00 0.0000000000000000e+00 4.9302207367898469e-02  0.0000000000000000e+00 0.0000000000000000e+00 4.5123980645121436e-02  0.0000000000000000e+00 9.9129165956006915e-04 8.3533575442163097e-02  0.0000000000000000e+00 3.3968970799545431e-02 1.0982283542597165e-01  0.0000000000000000e+00 6.8457180700739556e-02 1.0527761785418704e-01  0.0000000000000000e+00 1.0376530399703923e-01 9.3435403450766008e-02  0.0000000000000000e+00 1.3610895641488008e-01 8.1810160960098521e-02  0.0000000000000000e+00 1.7106838888835391e-01 4.4031715746351383e-02  0.0000000000000000e+00 1.5473723597185668e-01 0.0000000000000000e+00  0.0000000000000000e+00 1.1483363632088946e-01 0.0000000000000000e+00  0.0000000000000000e+00 7.8428108875509189e-02 0.0000000000000000e+00  0.0000000000000000e+00 4.7375608669578267e-02 0.0000000000000000e+00  0.0000000000000000e+00 2.2034284407243108e-02 0.0000000000000000e+00  1.3830515456447123e-02 0.0000000000000000e+00 8.1202566171506965e-02  2.4547086574823785e-02 0.0000000000000000e+00 7.7904475748352658e-02  3.5751392165244970e-02 0.0000000000000000e+00 7.7976131276767710e-02  4.7934657131395234e-02 0.0000000000000000e+00 7.9551445482322250e-02  6.2481328045944452e-02 0.0000000000000000e+00 7.9105093320965603e-02  7.2497872785193290e-02 0.0000000000000000e+00 8.4269013884801361e-02  8.6036328005414289e-02 0.0000000000000000e+00 8.7561140251081304e-02  9.6019995057486623e-02 0.0000000000000000e+00 9.3643762491651766e-02  1.0816302829686968e-01 0.0000000000000000e+00 1.0180083357977184e-01  1.1974385347674357e-01 0.0000000000000000e+00 1.1385626475137098e-01  1.3334778176427101e-01 0.0000000000000000e+00 1.1979633961214506e-01  1.4711065511854382e-01 0.0000000000000000e+00 1.1901346922601339e-01  1.5857310845751546e-01 0.0000000000000000e+00 1.2813358621092377e-01  1.6728355049590490e-01 0.0000000000000000e+00 1.3860106585964924e-01  1.8454710200612179e-01 0.0000000000000000e+00 1.4338462783489173e-01  1.9335958510044343e-01 0.0000000000000000e+00 1.5483052523433372e-01  2.0564456098021841e-01 0.0000000000000000e+00 1.6630992115593846e-01  2.1798134950837114e-01 0.0000000000000000e+00 1.7825199513587406e-01  2.3090257410700951e-01 0.0000000000000000e+00 1.8494026237077812e-01  2.4367772133377252e-01 0.0000000000000000e+00 1.9414039855893961e-01  2.5578579717658845e-01 0.0000000000000000e+00 2.0103278557427842e-01  2.7050337529788632e-01 0.0000000000000000e+00 2.1642567714633265e-01  2.8196968229120045e-01 0.0000000000000000e+00 2.2545155130785141e-01  2.9398087555694435e-01 0.0000000000000000e+00 2.3952991462804693e-01  3.0761364026381421e-01 0.0000000000000000e+00 2.5271369971249019e-01  3.1814279834902515e-01 0.0000000000000000e+00 2.6895972760025916e-01  3.2801014466753836e-01 0.0000000000000000e+00 2.8850493284622852e-01  3.4169969350289342e-01 0.0000000000000000e+00 2.9766482505422215e-01  3.5199823744687958e-01 0.0000000000000000e+00 3.1605150535842019e-01  3.6184676387145498e-01 0.0000000000000000e+00 3.3534277320043665e-01  3.7946668319093152e-01 0.0000000000000000e+00 3.4143869148000733e-01  3.9296415195508688e-01 0.0000000000000000e+00 3.6190766562035809e-01  4.0311085726840268e-01 0.0000000000000000e+00 3.8358006679485140e-01  4.1586490318364117e-01 0.0000000000000000e+00 4.0220734943844194e-01  4.2838284640738661e-01 0.0000000000000000e+00 4.2437243418521237e-01  4.4158794450651312e-01 0.0000000000000000e+00 4.4021012647544577e-01  4.5140433083325138e-01 0.0000000000000000e+00 4.6468020932247256e-01  4.6419067052179308e-01 0.0000000000000000e+00 4.8003746047691281e-01  4.7523433481225330e-01 0.0000000000000000e+00 5.0618280308826802e-01  4.8704096874236968e-01 0.0000000000000000e+00 5.2429000114974866e-01  5.0115628382036104e-01 0.0000000000000000e+00 5.4355524129614585e-01  5.0927107057423149e-01 0.0000000000000000e+00 5.6477036307111972e-01  5.2223485369429523e-01 0.0000000000000000e+00 5.8677876180635735e-01  5.3047210406342815e-01 0.0000000000000000e+00 6.1776260547071560e-01  5.4555315704707863e-01 0.0000000000000000e+00 6.3654565411730524e-01  5.5698559065828102e-01 0.0000000000000000e+00 6.6240528209708738e-01  5.6841259425010959e-01 0.0000000000000000e+00 6.8443545857068255e-01  5.7790840094880769e-01 0.0000000000000000e+00 7.1261304426568461e-01  5.9056488606884339e-01 0.0000000000000000e+00 7.3895467410478122e-01  6.0021475058505913e-01 0.0000000000000000e+00 7.6934333631809881e-01  6.1203708559666470e-01 0.0000000000000000e+00 8.0044491355055225e-01  6.2430113707186086e-01 0.0000000000000000e+00 8.2682089765433253e-01  6.3442768743096289e-01 0.0000000000000000e+00 8.6156866212019678e-01  6.4674042726359016e-01 0.0000000000000000e+00 8.8951736232548095e-01  6.5929577198467781e-01 0.0000000000000000e+00 9.1723556383455029e-01  6.6711874811640315e-01 0.0000000000000000e+00 9.4573901957216644e-01  6.8052077920391019e-01 0.0000000000000000e+00 9.7796536163448422e-01  6.9179042574537808e-01 0.0000000000000000e+00 1.0124540807805220e+00  7.0221638424010213e-01 0.0000000000000000e+00 1.0451836632319524e+00  7.1047094195332949e-01 0.0000000000000000e+00 1.0806030690488986e+00  7.2146545166662923e-01 0.0000000000000000e+00 1.1163748659667854e+00  7.3356607299750243e-01 0.0000000000000000e+00 1.1493517955406320e+00  7.4491582128270728e-01 0.0000000000000000e+00 1.1829481186531836e+00  7.5767306346658292e-01 0.0000000000000000e+00 1.2207006440992558e+00  7.6720964601169284e-01 0.0000000000000000e+00 1.2573704020173215e+00  7.7639406101453812e-01 0.0000000000000000e+00 1.2942562585615283e+00  7.8836295037962700e-01 0.0000000000000000e+00 1.3300611877518262e+00  8.0137039851724823e-01 0.0000000000000000e+00 1.3688337730789795e+00  8.1012684841716698e-01 0.0000000000000000e+00 1.4072374914401422e+00  8.2089124652428980e-01 0.0000000000000000e+00 1.4506898931502641e+00  8.3122658145409145e-01 0.0000000000000000e+00 1.4888230070625528e+00  8.4254550588067845e-01 0.0000000000000000e+00 1.5290694591632645e+00  8.5045849041859878e-01 0.0000000000000000e+00 1.5763634575636081e+00  8.6186393186682375e-01 0.0000000000000000e+00 1.6172267522685504e+00  8.7294197678433250e-01 0.0000000000000000e+00 1.6573310172979083e+00  8.8560584028159450e-01 0.0000000000000000e+00 1.7007120237127178e+00  8.9428928055026025e-01 0.0000000000000000e+00 1.7455421982685870e+00  9.0560050923294788e-01 0.0000000000000000e+00 1.7869965758034689e+00  9.1316134177061548e-01 0.0000000000000000e+00 1.8353645693572358e+00  9.2284592188187864e-01 0.0000000000000000e+00 1.8816824862666492e+00  9.3462639709654638e-01 0.0000000000000000e+00 1.9290692302781700e+00  9.4262531109107095e-01 0.0000000000000000e+00 1.9757397799057728e+00  9.5262531326656608e-01 0.0000000000000000e+00 2.0251008746603838e+00  9.6442878321979908e-01 0.0000000000000000e+00 2.0711966294254087e+00  9.7329227858837730e-01 0.0000000000000000e+00 2.1159141890088078e+00  9.8229274431662883e-01 0.0000000000000000e+00 2.1657423338286335e+00  9.9329016701053241e-01 0.0000000000000000e+00 2.2117084009374697e+00  1.0029039317913313e+00 0.0000000000000000e+00 2.2621227552700880e+00  1.0134946240367353e+00 0.0000000000000000e+00 2.3099410984240025e+00  1.0226419289267592e+00 0.0000000000000000e+00 2.3614514968948841e+00  1.0290094623320594e+00 0.0000000000000000e+00 2.4137999126676410e+00  1.0369548521040381e+00 0.0000000000000000e+00 2.4673242100618413e+00  1.0460895799183900e+00 0.0000000000000000e+00 2.5171249975508814e+00  1.0553665728442272e+00 0.0000000000000000e+00 2.5643484904933573e+00  1.0638537679487685e+00 0.0000000000000000e+00 2.6084814638770091e+00  1.0665742682553938e+00 0.0000000000000000e+00 2.6563632008329234e+00  1.0682962140768226e+00 0.0000000000000000e+00 2.7042436091666628e+00  1.0684067191926316e+00 0.0000000000000000e+00 2.7553810759637347e+00  1.0660721860276863e+00 0.0000000000000000e+00 2.8081002659850709e+00  1.0896710536767575e+00 -2.9714114279915985e-03 2.8663469880209314e+00  1.1306137092820019e+00 -5.9943325811983520e-04 2.8762638262725115e+00  1.1871986438281208e+00 7.6583564914396943e-03 2.8934120949868376e+00  1.2670585858282966e+00 2.4605571014323688e-02 2.9109638151947905e+00  1.3638513365903688e+00 5.4316697178167526e-02 2.9324875534827282e+00  1.4902514791639179e+00 9.6115371108432324e-02 2.9417699816085188e+00  1.6065482703633704e+00 1.6599576425671131e-01 2.8643799919340682e+00  1.5901427065853029e+00 1.7328927128332725e-01 2.7989941168368442e+00  1.5741362917077466e+00 1.8193790496719520e-01 2.7338996844171968e+00  1.5597745851383795e+00 1.8852543940783728e-01 2.6680952387288359e+00  1.5427077390369202e+00 1.9540039154291278e-01 2.6054565012245861e+00  1.5239867350184206e+00 1.9877825300854182e-01 2.5448558942768891e+00  1.5048516650076993e+00 2.0224999356522566e-01 2.4855134808236223e+00  1.4864853312324842e+00 2.0313791597885020e-01 2.4270985290981297e+00  1.4687150660352701e+00 2.0374794823707645e-01 2.3692693874553283e+00  1.4508781128036268e+00 2.0418813071898312e-01 2.3130764970437032e+00  1.4340416864553573e+00 2.0477191530995784e-01 2.2571030097742613e+00  1.4171567793242219e+00 2.0211896605938934e-01 2.2042433077372645e+00  1.4008555609570923e+00 2.0172944643179899e-01 2.1506619076755875e+00  1.3847455522251666e+00 2.0097316148099326e-01 2.0987221965927918e+00  1.3686507255311826e+00 2.0026007154154069e-01 2.0497274022120311e+00  1.3548160720092801e+00 2.0117475519386788e-01 2.0000953074380412e+00  1.3387544921179735e+00 2.0069768819954106e-01 1.9483153675006852e+00  1.3236619246773142e+00 1.9772304388572962e-01 1.8995673185679509e+00  1.3075506770160830e+00 1.9694710620413725e-01 1.8516032412393388e+00  1.2916027041540898e+00 1.9592677860848054e-01 1.8035153063533327e+00  1.2766026306394371e+00 1.9397855091108637e-01 1.7559726352267520e+00  1.2623461570163192e+00 1.9536238167915007e-01 1.7062936126576007e+00  1.2477023595780432e+00 1.9362491185631295e-01 1.6611015439275152e+00  1.2322132279546156e+00 1.9695122594210357e-01 1.6152563819138110e+00  1.2166172227199463e+00 1.9557956433185691e-01 1.5718628297839652e+00  1.2015140968551281e+00 1.9401186714580829e-01 1.5289080630689229e+00  1.1864893550267031e+00 1.9408269018641924e-01 1.4865319603789018e+00  1.1712753730942242e+00 1.9504705741192729e-01 1.4446289132951780e+00  1.1562409146708341e+00 1.9248950863526126e-01 1.4039751856545668e+00  1.1411380041896171e+00 1.9371690452667889e-01 1.3627134411949180e+00  1.1260920281465170e+00 1.9400633730544423e-01 1.3225696926821877e+00  1.1109805701661213e+00 1.9203999556941503e-01 1.2845591813621591e+00  1.0955360518138213e+00 1.9367577091346741e-01 1.2460522688060724e+00  1.0804358277033299e+00 1.9445790351634298e-01 1.2085700563987223e+00  1.0649197004799069e+00 1.9484394743768094e-01 1.1715919092746228e+00  1.0497239950292581e+00 1.9637513633727546e-01 1.1347998807829427e+00  1.0338039362144904e+00 1.9681967374186471e-01 1.0993045166285953e+00  1.0180139717036805e+00 1.9579452647723083e-01 1.0636690178628716e+00  1.0026378826837123e+00 1.9397929871118952e-01 1.0292577528288691e+00  9.8638192270697478e-01 1.9704810461095434e-01 9.9522510088751381e-01  9.7044263571628286e-01 1.9841504577938629e-01 9.6082295380415195e-01  9.5426391867704330e-01 1.9557873875925791e-01 9.2816291716681310e-01  9.3749746197663908e-01 1.9836210386482417e-01 8.9311882458621683e-01  9.2131975393742149e-01 1.9696076988809003e-01 8.5930555080387472e-01  9.0560726548022985e-01 1.9478991553924285e-01 8.2715680874605768e-01  8.8973569146333364e-01 1.9565848190548979e-01 7.9463673973393467e-01  8.7329568699535554e-01 1.9636980100120580e-01 7.6317003213646406e-01  8.5737309733067391e-01 1.9409654559295700e-01 7.3358240802899632e-01  8.4121174080681149e-01 1.9490974547549136e-01 7.0297431238991637e-01  8.2540344246301500e-01 1.9355216105884099e-01 6.7308484754107922e-01  8.0887457992080114e-01 1.9320061870817126e-01 6.4505392960374530e-01  7.9295195471576885e-01 1.9195288867021118e-01 6.1847599056228442e-01  7.7703512061810753e-01 1.9355469907773318e-01 5.9108079655926904e-01  7.6049723721720675e-01 1.9370596245036212e-01 5.6527479791465329e-01  7.4433820533901163e-01 1.9253039768106198e-01 5.4122818023143549e-01  7.2814971344618595e-01 1.9252375513280781e-01 5.1581093118526888e-01  7.1239705669568087e-01 1.9305016034752739e-01 4.9050165919609778e-01  6.9628487771874659e-01 1.9303459599240744e-01 4.6687926586653428e-01  6.7959508099743460e-01 1.9323485445431174e-01 4.4460255006242594e-01  6.6236942664539522e-01 1.9428304372929986e-01 4.2270074892914378e-01  6.4632457254323095e-01 1.9198194098056329e-01 4.0177566462137865e-01  6.2946395493716345e-01 1.9269812445048620e-01 3.8189556721795176e-01  6.1312729857935555e-01 1.9344703475521999e-01 3.6122069089850645e-01  5.9640910488326193e-01 1.9360973504941936e-01 3.4183881813632361e-01  5.8016409615546882e-01 1.9363039148303124e-01 3.2269497840021033e-01  5.6392890746364033e-01 1.9593836275992924e-01 3.0323377828892495e-01  5.4695407851199596e-01 1.9454159891458198e-01 2.8802086822674533e-01  5.3088769158962090e-01 1.9669475495733529e-01 2.7030354592403549e-01  5.1390783491333003e-01 1.9544746165340190e-01 2.5393112963726311e-01  4.9720811131071069e-01 1.9581457364725158e-01 2.3661201345166191e-01  4.8104262543688625e-01 1.9499553005582071e-01 2.1959342161098805e-01  4.6496011633822981e-01 1.9536110464145273e-01 2.0346417859684560e-01  4.4879520323243621e-01 1.9437085215387723e-01 1.8882760201927956e-01  4.3230795144182249e-01 1.9479791975533270e-01 1.7359541537169465e-01  4.1600988052686250e-01 1.9381584059421261e-01 1.5929662589752833e-01  3.9922065372428756e-01 1.9541481757636001e-01 1.4476304461543241e-01  3.8238176216152270e-01 1.9540846379913837e-01 1.3214269701078624e-01  3.6509373343406892e-01 1.9507872096036682e-01 1.1987772397617226e-01  3.4878817587267130e-01 1.9508515079574951e-01 1.0866880646503356e-01  3.3274876805574471e-01 1.9618475585581585e-01 9.5908960643606420e-02  3.1597543009382500e-01 1.9444006794955185e-01 8.5950258547890429e-02  2.9970109789748384e-01 1.9390215352397489e-01 7.5610773773212847e-02  2.8296671409248125e-01 1.9675442255656234e-01 6.4721035100492624e-02  2.6632144923334472e-01 1.9662970911163097e-01 5.6896017814364076e-02  2.4918291914396243e-01 1.9676430440867085e-01 5.0041893475936433e-02  2.3258635849244061e-01 1.9699193900174117e-01 4.1783981889625073e-02  2.1571365766109915e-01 1.9752400158299491e-01 3.3383892295785048e-02  1.9888730979664121e-01 1.9596290447684137e-01 2.8245324376291434e-02  1.8250844620427489e-01 1.9658331118530700e-01 2.2229690722016297e-02  1.6603132970157911e-01 1.9637603809282334e-01 1.7242449039757225e-02  1.4994163614135794e-01 1.9848362928971880e-01 1.2445972302415132e-02  1.3346533954054696e-01 1.9873823166072907e-01 9.0249934688884925e-03  1.1700946661159818e-01 1.9901086213282654e-01 6.2085560357209692e-03  1.0085598642080358e-01 1.9984579334521352e-01 2.8986467952730717e-03  8.4012809052800508e-02 2.0222802374934212e-01 9.2715563399831192e-05  6.7349329819180084e-02 2.0031263931485921e-01 1.2226386786531830e-03  5.0376044376447777e-02 2.0324647294746304e-01 5.0466772203108204e-04  3.3066929094770464e-02 2.0378795544678369e-01 0.0000000000000000e+00  1.5930389036166902e-02 2.0496047384810057e-01 0.0000000000000000e+00  1.6112774605351809e+00 1.1702485926886187e-01 2.9029422088129091e+00  1.5974586882539692e+00 8.7530961500234886e-02 2.8835395453048465e+00  1.5813665375291994e+00 5.8688197654018406e-02 2.8660872323682263e+00  1.5828349720648818e+00 4.3056885208713418e-02 2.8682905859575607e+00  1.5704906847015927e+00 1.7926366949588827e-02 2.8583707931586488e+00  1.5460639114454193e+00 0.0000000000000000e+00 2.7854505635486211e+00  1.5315943786450059e+00 0.0000000000000000e+00 2.7264316997694720e+00  1.5160971127711365e+00 0.0000000000000000e+00 2.6654551746232999e+00  1.5025535398485821e+00 0.0000000000000000e+00 2.6098970017257495e+00  1.4852011571155033e+00 0.0000000000000000e+00 2.5606601343215463e+00  1.4736247768910615e+00 0.0000000000000000e+00 2.5058438505393505e+00  1.4590300152321458e+00 0.0000000000000000e+00 2.4577188386389826e+00  1.4461471263211110e+00 0.0000000000000000e+00 2.4081078661043072e+00  1.4368393112121816e+00 0.0000000000000000e+00 2.3514362175734380e+00  1.4218139500512375e+00 0.0000000000000000e+00 2.3086797510883761e+00  1.4081639189773270e+00 0.0000000000000000e+00 2.2622918739009004e+00  1.3956553839923118e+00 0.0000000000000000e+00 2.2085979851703228e+00  1.3831792904541296e+00 0.0000000000000000e+00 2.1564059888337330e+00  1.3724986175198437e+00 0.0000000000000000e+00 2.1034850555788980e+00  1.3573133601047134e+00 0.0000000000000000e+00 2.0638756096539406e+00  1.3397939781488120e+00 0.0000000000000000e+00 2.0177249631790128e+00  1.3238574503315059e+00 0.0000000000000000e+00 1.9703436988474334e+00  1.3141926518044131e+00 0.0000000000000000e+00 1.9154986925717110e+00  1.3011223127911555e+00 0.0000000000000000e+00 1.8777483178670511e+00  1.2858075350247020e+00 0.0000000000000000e+00 1.8270994533518157e+00  1.2746324235869186e+00 0.0000000000000000e+00 1.7764442704806249e+00  1.2553313992610493e+00 0.0000000000000000e+00 1.7415301755801860e+00  1.2432571156482446e+00 0.0000000000000000e+00 1.6902987399885145e+00  1.2305903371808542e+00 0.0000000000000000e+00 1.6515359752095335e+00  1.2125123956927710e+00 0.0000000000000000e+00 1.6056012811506586e+00  1.1960032690737288e+00 0.0000000000000000e+00 1.5617648416096688e+00  1.1842396564796696e+00 0.0000000000000000e+00 1.5105955561381701e+00  1.1683730568754702e+00 0.0000000000000000e+00 1.4766609296752322e+00  1.1541645675303427e+00 0.0000000000000000e+00 1.4327429629009178e+00  1.1405177557464490e+00 0.0000000000000000e+00 1.3961429179263463e+00  1.1214866262955183e+00 0.0000000000000000e+00 1.3590153883120639e+00  1.1040328754630819e+00 0.0000000000000000e+00 1.3188932732135130e+00  1.0932918840635362e+00 0.0000000000000000e+00 1.2717111921429072e+00  1.0782944341827121e+00 0.0000000000000000e+00 1.2389257491471328e+00  1.0647818457660008e+00 0.0000000000000000e+00 1.1941110701919364e+00  1.0471465294704445e+00 0.0000000000000000e+00 1.1663081450139277e+00  1.0299428979224610e+00 0.0000000000000000e+00 1.1250062101095599e+00  1.0178693965733370e+00 0.0000000000000000e+00 1.0861782693314288e+00  1.0017902304355053e+00 0.0000000000000000e+00 1.0570043854951292e+00  9.8672904079206269e-01 0.0000000000000000e+00 1.0141412515254449e+00  9.6859461454972828e-01 0.0000000000000000e+00 9.8803424334040713e-01  9.5057141226125552e-01 0.0000000000000000e+00 9.4891294166337103e-01  9.3760532291801801e-01 0.0000000000000000e+00 9.1024988084782366e-01  9.1973804802378567e-01 0.0000000000000000e+00 8.8763176437424662e-01  9.0096505824579687e-01 0.0000000000000000e+00 8.5859235202163808e-01  8.8742237410051406e-01 0.0000000000000000e+00 8.2057576381970077e-01  8.6986757560033945e-01 0.0000000000000000e+00 7.9752465558026830e-01  8.5731573928878901e-01 0.0000000000000000e+00 7.6116272873670388e-01  8.4092724799241725e-01 0.0000000000000000e+00 7.3854597433039837e-01  8.2324773725946532e-01 0.0000000000000000e+00 7.0872299205118161e-01  8.0498657144833785e-01 0.0000000000000000e+00 6.8027050704283676e-01  7.9119202637108244e-01 0.0000000000000000e+00 6.4749197946203174e-01  7.7314340237887436e-01 0.0000000000000000e+00 6.2959591329744435e-01  7.5992845599584136e-01 0.0000000000000000e+00 5.9556405881770091e-01  7.4339570300993063e-01 0.0000000000000000e+00 5.7556013489044877e-01