<?xml version="1.0"?>
<VTKFile type="UnstructuredGrid"  version="0.1"  >
<UnstructuredGrid>
<Piece  NumberOfPoints="3069" NumberOfCells="12882">
<Points>
<DataArray  type="Float64"  NumberOfComponents="3"  format="ascii">0 0 0  0 0 4  0 5.65685415 0  50 0 4  50 5.65685415 0  50 0 0  0 0 1  0 0 2  0 0 3  0 1.04967844 3.90746784  0 2.0669806 3.632725  0 3.02052855 3.18424606  0 3.88091111 2.5758636  0 4.62159061 1.82634306  0 5.21972132 0.958802283  0 4.71404505 0  0 3.77123618 0  0 2.82842708 0  0 1.88561809 0  0 0.942809045 0  0.5 0 4  1 0 4  1.5 0 4  2 0 4  2.5 0 4  3 0 4  3.5 0 4  4 0 4  4.5 0 4  5 0 4  5.5 0 4  6 0 4  6.5 0 4  7 0 4  7.5 0 4  8 0 4  8.5 0 4  9 0 4  9.5 0 4  10 0 4  10.5 0 4  11 0 4  11.5 0 4  12 0 4  12.5 0 4  13 0 4  13.5 0 4  14 0 4  14.5 0 4  15 0 4  15.5 0 4  16 0 4  16.5 0 4  17 0 4  17.5 0 4  18 0 4  18.5 0 4  19 0 4  19.5 0 4  20 0 4  20.5 0 4  21 0 4  21.5 0 4  22 0 4  22.5 0 4  23 0 4  23.5 0 4  24 0 4  24.5 0 4  25 0 4  25.5 0 4  26 0 4  26.5 0 4  27 0 4  27.5 0 4  28 0 4  28.5 0 4  29 0 4  29.5 0 4  30 0 4  30.5 0 4  31 0 4  31.5 0 4  32 0 4  32.5 0 4  33 0 4  33.5 0 4  34 0 4  34.5 0 4  35 0 4  35.5 0 4  36 0 4  36.5 0 4  37 0 4  37.5 0 4  38 0 4  38.5 0 4  39 0 4  39.5 0 4  40 0 4  40.5 0 4  41 0 4  41.5 0 4  42 0 4  42.5 0 4  43 0 4  43.5 0 4  44 0 4  44.5 0 4  45 0 4  45.5 0 4  46 0 4  46.5 0 4  47 0 4  47.5 0 4  48 0 4  48.5 0 4  49 0 4  49.5 0 4  50 1.04967844 3.90746784  50 2.0669806 3.632725  50 3.02052855 3.18424606  50 3.88091111 2.5758636  50 4.62159061 1.82634306  50 5.21972132 0.958802283  49.5 5.65685415 0  49 5.65685415 0  48.5 5.65685415 0  48 5.65685415 0  47.5 5.65685415 0  47 5.65685415 0  46.5 5.65685415 0  46 5.65685415 0  45.5 5.65685415 0  45 5.65685415 0  44.5 5.65685415 0  44 5.65685415 0  43.5 5.65685415 0  43 5.65685415 0  42.5 5.65685415 0  42 5.65685415 0  41.5 5.65685415 0  41 5.65685415 0  40.5 5.65685415 0  40 5.65685415 0  39.5 5.65685415 0  39 5.65685415 0  38.5 5.65685415 0  38 5.65685415 0  37.5 5.65685415 0  37 5.65685415 0  36.5 5.65685415 0  36 5.65685415 0  35.5 5.65685415 0  35 5.65685415 0  34.5 5.65685415 0  34 5.65685415 0  33.5 5.65685415 0  33 5.65685415 0  32.5 5.65685415 0  32 5.65685415 0  31.5 5.65685415 0  31 5.65685415 0  30.5 5.65685415 0  30 5.65685415 0  29.5 5.65685415 0  29 5.65685415 0  28.5 5.65685415 0  28 5.65685415 0  27.5 5.65685415 0  27 5.65685415 0  26.5 5.65685415 0  26 5.65685415 0  25.5 5.65685415 0  25 5.65685415 0  24.5 5.65685415 0  24 5.65685415 0  23.5 5.65685415 0  23 5.65685415 0  22.5 5.65685415 0  22 5.65685415 0  21.5 5.65685415 0  21 5.65685415 0  20.5 5.65685415 0  20 5.65685415 0  19.5 5.65685415 0  19 5.65685415 0  18.5 5.65685415 0  18 5.65685415 0  17.5 5.65685415 0  17 5.65685415 0  16.5 5.65685415 0  16 5.65685415 0  15.5 5.65685415 0  15 5.65685415 0  14.5 5.65685415 0  14 5.65685415 0  13.5 5.65685415 0  13 5.65685415 0  12.5 5.65685415 0  12 5.65685415 0  11.5 5.65685415 0  11 5.65685415 0  10.5 5.65685415 0  10 5.65685415 0  9.5 5.65685415 0  9 5.65685415 0  8.5 5.65685415 0  8 5.65685415 0  7.5 5.65685415 0  7 5.65685415 0  6.5 5.65685415 0  6 5.65685415 0  5.5 5.65685415 0  5 5.65685415 0  4.5 5.65685415 0  4 5.65685415 0  3.5 5.65685415 0  3 5.65685415 0  2.5 5.65685415 0  2 5.65685415 0  1.5 5.65685415 0  1 5.65685415 0  0.5 5.65685415 0  50 4.71404505 0  50 3.77123618 0  50 2.82842708 0  50 1.88561809 0  50 0.942809045 0  49.5 0 0  49 0 0  48.5 0 0  48 0 0  47.5 0 0  47 0 0  46.5 0 0  46 0 0  45.5 0 0  45 0 0  44.5 0 0  44 0 0  43.5 0 0  43 0 0  42.5 0 0  42 0 0  41.5 0 0  41 0 0  40.5 0 0  40 0 0  39.5 0 0  39 0 0  38.5 0 0  38 0 0  37.5 0 0  37 0 0  36.5 0 0  36 0 0  35.5 0 0  35 0 0  34.5 0 0  34 0 0  33.5 0 0  33 0 0  32.5 0 0  32 0 0  31.5 0 0  31 0 0  30.5 0 0  30 0 0  29.5 0 0  29 0 0  28.5 0 0  28 0 0  27.5 0 0  27 0 0  26.5 0 0  26 0 0  25.5 0 0  25 0 0  24.5 0 0  24 0 0  23.5 0 0  23 0 0  22.5 0 0  22 0 0  21.5 0 0  21 0 0  20.5 0 0  20 0 0  19.5 0 0  19 0 0  18.5 0 0  18 0 0  17.5 0 0  17 0 0  16.5 0 0  16 0 0  15.5 0 0  15 0 0  14.5 0 0  14 0 0  13.5 0 0  13 0 0  12.5 0 0  12 0 0  11.5 0 0  11 0 0  10.5 0 0  10 0 0  9.5 0 0  9 0 0  8.5 0 0  8 0 0  7.5 0 0  7 0 0  6.5 0 0  6 0 0  5.5 0 0  5 0 0  4.5 0 0  4 0 0  3.5 0 0  3 0 0  2.5 0 0  2 0 0  1.5 0 0  1 0 0  0.5 0 0  50 0 1  50 0 2  50 0 3  0 2.33524275 0.893602192  0 2.87561393 1.93323028  0 4.2367816 0.876864135  0 2.00050235 2.65534091  0 0.981494486 2.34323239  0 3.78543234 1.61830366  0 3.30545568 0.887000024  0 0.812916458 1.58408713  0 1.71948838 1.71268857  0 1.28267908 0.8650629520000001  0 1.21973121 3.10775328  0.5 5.21972132 0.958802223  0.5 4.62159061 1.82634306  0.5 3.88091111 2.5758636  0.5 3.02052855 3.18424606  0.5 2.0669806 3.632725  0.5 1.04967844 3.90746784  1 5.21972132 0.958802223  1 4.62159061 1.82634306  1 3.88091111 2.5758636  1 3.02052855 3.18424606  1 2.0669806 3.632725  1 1.04967844 3.90746784  1.5 5.21972132 0.958802223  1.5 4.62159061 1.82634306  1.5 3.88091111 2.5758636  1.5 3.02052855 3.18424606  1.5 2.0669806 3.632725  1.5 1.04967844 3.90746784  2 5.21972132 0.958802223  2 4.62159061 1.82634306  2 3.88091111 2.5758636  2 3.02052855 3.18424606  2 2.0669806 3.632725  2 1.04967844 3.90746784  2.5 5.21972132 0.958802223  2.5 4.62159061 1.82634306  2.5 3.88091111 2.5758636  2.5 3.02052855 3.18424606  2.5 2.0669806 3.632725  2.5 1.04967844 3.90746784  3 5.21972132 0.958802223  3 4.62159061 1.82634306  3 3.88091111 2.5758636  3 3.02052855 3.18424606  3 2.0669806 3.632725  3 1.04967844 3.90746784  3.5 5.21972132 0.958802223  3.5 4.62159061 1.82634306  3.5 3.88091111 2.5758636  3.5 3.02052855 3.18424606  3.5 2.0669806 3.632725  3.5 1.04967844 3.90746784  4 5.21972132 0.958802223  4 4.62159061 1.82634306  4 3.88091111 2.5758636  4 3.02052855 3.18424606  4 2.0669806 3.632725  4 1.04967844 3.90746784  4.5 5.21972132 0.958802223  4.5 4.62159061 1.82634306  4.5 3.88091111 2.5758636  4.5 3.02052855 3.18424606  4.5 2.0669806 3.632725  4.5 1.04967844 3.90746784  5 5.21972132 0.958802223  5 4.62159061 1.82634306  5 3.88091111 2.5758636  5 3.02052855 3.18424606  5 2.0669806 3.632725  5 1.04967844 3.90746784  5.5 5.21972132 0.958802223  5.5 4.62159061 1.82634306  5.5 3.88091111 2.5758636  5.5 3.02052855 3.18424606  5.5 2.0669806 3.632725  5.5 1.04967844 3.90746784  6 5.21972132 0.958802223  6 4.62159061 1.82634306  6 3.88091111 2.5758636  6 3.02052855 3.18424606  6 2.0669806 3.632725  6 1.04967844 3.90746784  6.5 5.21972132 0.958802223  6.5 4.62159061 1.82634306  6.5 3.88091111 2.5758636  6.5 3.02052855 3.18424606  6.5 2.0669806 3.632725  6.5 1.04967844 3.90746784  7 5.21972132 0.958802223  7 4.62159061 1.82634306  7 3.88091111 2.5758636  7 3.02052855 3.18424606  7 2.0669806 3.632725  7 1.04967844 3.90746784  7.5 5.21972132 0.958802223  7.5 4.62159061 1.82634306  7.5 3.88091111 2.5758636  7.5 3.02052855 3.18424606  7.5 2.0669806 3.632725  7.5 1.04967844 3.90746784  8 5.21972132 0.958802223  8 4.62159061 1.82634306  8 3.88091111 2.5758636  8 3.02052855 3.18424606  8 2.0669806 3.632725  8 1.04967844 3.90746784  8.5 5.21972132 0.958802223  8.5 4.62159061 1.82634306  8.5 3.88091111 2.5758636  8.5 3.02052855 3.18424606  8.5 2.0669806 3.632725  8.5 1.04967844 3.90746784  9 5.21972132 0.958802223  9 4.62159061 1.82634306  9 3.88091111 2.5758636  9 3.02052855 3.18424606  9 2.0669806 3.632725  9 1.04967844 3.90746784  9.5 5.21972132 0.958802223  9.5 4.62159061 1.82634306  9.5 3.88091111 2.5758636  9.5 3.02052855 3.18424606  9.5 2.0669806 3.632725  9.5 1.04967844 3.90746784  10 5.21972132 0.958802223  10 4.62159061 1.82634306  10 3.88091111 2.5758636  10 3.02052855 3.18424606  10 2.0669806 3.632725  10 1.04967844 3.90746784  10.5 5.21972132 0.958802223  10.5 4.62159061 1.82634306  10.5 3.88091111 2.5758636  10.5 3.02052855 3.18424606  10.5 2.0669806 3.632725  10.5 1.04967844 3.90746784  11 5.21972132 0.958802223  11 4.62159061 1.82634306  11 3.88091111 2.5758636  11 3.02052855 3.18424606  11 2.0669806 3.632725  11 1.04967844 3.90746784  11.5 5.21972132 0.958802223  11.5 4.62159061 1.82634306  11.5 3.88091111 2.5758636  11.5 3.02052855 3.18424606  11.5 2.0669806 3.632725  11.5 1.04967844 3.90746784  12 5.21972132 0.958802223  12 4.62159061 1.82634306  12 3.88091111 2.5758636  12 3.02052855 3.18424606  12 2.0669806 3.632725  12 1.04967844 3.90746784  12.5 5.21972132 0.958802223  12.5 4.62159061 1.82634306  12.5 3.88091111 2.5758636  12.5 3.02052855 3.18424606  12.5 2.0669806 3.632725  12.5 1.04967844 3.90746784  13 5.21972132 0.958802223  13 4.62159061 1.82634306  13 3.88091111 2.5758636  13 3.02052855 3.18424606  13 2.0669806 3.632725  13 1.04967844 3.90746784  13.5 5.21972132 0.958802223  13.5 4.62159061 1.82634306  13.5 3.88091111 2.5758636  13.5 3.02052855 3.18424606  13.5 2.0669806 3.632725  13.5 1.04967844 3.90746784  14 5.21972132 0.958802223  14 4.62159061 1.82634306  14 3.88091111 2.5758636  14 3.02052855 3.18424606  14 2.0669806 3.632725  14 1.04967844 3.90746784  14.5 5.21972132 0.958802223  14.5 4.62159061 1.82634306  14.5 3.88091111 2.5758636  14.5 3.02052855 3.18424606  14.5 2.0669806 3.632725  14.5 1.04967844 3.90746784  15 5.21972132 0.958802223  15 4.62159061 1.82634306  15 3.88091111 2.5758636  15 3.02052855 3.18424606  15 2.0669806 3.632725  15 1.04967844 3.90746784  15.5 5.21972132 0.958802223  15.5 4.62159061 1.82634306  15.5 3.88091111 2.5758636  15.5 3.02052855 3.18424606  15.5 2.0669806 3.632725  15.5 1.04967844 3.90746784  16 5.21972132 0.958802223  16 4.62159061 1.82634306  16 3.88091111 2.5758636  16 3.02052855 3.18424606  16 2.0669806 3.632725  16 1.04967844 3.90746784  16.5 5.21972132 0.958802223  16.5 4.62159061 1.82634306  16.5 3.88091111 2.5758636  16.5 3.02052855 3.18424606  16.5 2.0669806 3.632725  16.5 1.04967844 3.90746784  17 5.21972132 0.958802223  17 4.62159061 1.82634306  17 3.88091111 2.5758636  17 3.02052855 3.18424606  17 2.0669806 3.632725  17 1.04967844 3.90746784  17.5 5.21972132 0.958802223  17.5 4.62159061 1.82634306  17.5 3.88091111 2.5758636  17.5 3.02052855 3.18424606  17.
[...]
<PointData  Vectors="f_261141-0"> 
<DataArray  type="Float64"  Name="f_261141-0"  NumberOfComponents="3" format="ascii">0.0000000000000000e+00 0.0000000000000000e+00 0.0000000000000000e+00  0.0000000000000000e+00 0.0000000000000000e+00 7.3236956744805937e-01  0.0000000000000000e+00 1.0507750410040921e+00 0.0000000000000000e+00  9.3497538316582105e+00 0.0000000000000000e+00 1.7179772163957716e+00  9.6796087206740378e+00 9.8441361065810618e-01 1.1422523206886719e+00  9.5666438666975058e+00 0.0000000000000000e+00 1.1212515847337048e+00  0.0000000000000000e+00 0.0000000000000000e+00 1.5785508963993033e-01  0.0000000000000000e+00 0.0000000000000000e+00 3.6902070869753245e-01  0.0000000000000000e+00 0.0000000000000000e+00 5.8110288990401526e-01  0.0000000000000000e+00 1.9639011483222948e-01 7.0363776785365451e-01  0.0000000000000000e+00 3.6964562056061484e-01 6.5666468532870303e-01  0.0000000000000000e+00 5.5301283758356012e-01 6.0824169406525153e-01  0.0000000000000000e+00 7.3607223580248748e-01 5.0519234041341876e-01  0.0000000000000000e+00 9.0014762484289523e-01 3.3129352615788599e-01  0.0000000000000000e+00 1.0149382633959012e+00 1.7469436847493089e-01  0.0000000000000000e+00 8.9786651200062395e-01 0.0000000000000000e+00  0.0000000000000000e+00 7.2863146641805954e-01 0.0000000000000000e+00  0.0000000000000000e+00 5.2850968373598095e-01 0.0000000000000000e+00  0.0000000000000000e+00 3.3685936560231677e-01 0.0000000000000000e+00  0.0000000000000000e+00 1.6894738346319982e-01 0.0000000000000000e+00  9.5010184008334900e-02 0.0000000000000000e+00 7.3629434838369689e-01  1.8735953413256565e-01 0.0000000000000000e+00 7.3335659220601646e-01  2.8153009408363727e-01 0.0000000000000000e+00 7.3576890063715994e-01  3.7764111802264372e-01 0.0000000000000000e+00 7.3816088090926724e-01  4.6881358600347994e-01 0.0000000000000000e+00 7.4384167952383029e-01  5.6976550396394510e-01 0.0000000000000000e+00 7.3977455789894841e-01  6.6172639059834992e-01 0.0000000000000000e+00 7.4334577491696596e-01  7.5888835732156834e-01 0.0000000000000000e+00 7.3693280760810786e-01  8.5463493304734406e-01 0.0000000000000000e+00 7.3908470079693556e-01  9.4682145491952718e-01 0.0000000000000000e+00 7.4332582215749887e-01  1.0395501971167234e+00 0.0000000000000000e+00 7.4833719099212026e-01  1.1334943619940474e+00 0.0000000000000000e+00 7.5516122173939892e-01  1.2283202183868378e+00 0.0000000000000000e+00 7.6415161963675171e-01  1.3350753944034166e+00 0.0000000000000000e+00 7.5480822341287523e-01  1.4302496804493625e+00 0.0000000000000000e+00 7.5870859734957397e-01  1.5289342386755094e+00 0.0000000000000000e+00 7.5614307609780629e-01  1.6238590538710895e+00 0.0000000000000000e+00 7.5744185889951354e-01  1.7183607588071494e+00 0.0000000000000000e+00 7.5864583148976461e-01  1.8124275705451265e+00 0.0000000000000000e+00 7.6381906349547202e-01  1.9041265834371284e+00 0.0000000000000000e+00 7.7392184904383499e-01  1.9961605481139544e+00 0.0000000000000000e+00 7.8737627907848373e-01  2.0948738998882761e+00 0.0000000000000000e+00 7.8580567904093568e-01  2.1915332660275753e+00 0.0000000000000000e+00 7.9134179808887550e-01  2.2880385816072430e+00 0.0000000000000000e+00 7.8968638442924666e-01  2.3808702248532150e+00 0.0000000000000000e+00 8.0193487245851947e-01  2.4765975553906370e+00 0.0000000000000000e+00 8.0412752473050186e-01  2.5730802221757014e+00 0.0000000000000000e+00 8.0691550903446785e-01  2.6655961574403118e+00 0.0000000000000000e+00 8.2016142570578976e-01  2.7599169220186797e+00 0.0000000000000000e+00 8.2336555540241729e-01  2.8551863310777441e+00 0.0000000000000000e+00 8.2358073450816860e-01  2.9445748935639764e+00 0.0000000000000000e+00 8.4159634069875078e-01  3.0415025219286860e+00 0.0000000000000000e+00 8.4396888739099774e-01  3.1347230832402371e+00 0.0000000000000000e+00 8.5066064658080320e-01  3.2329737022940011e+00 0.0000000000000000e+00 8.4631901968406442e-01  3.3301319673747591e+00 0.0000000000000000e+00 8.4906502467910161e-01  3.4268752991800127e+00 0.0000000000000000e+00 8.5759072641458167e-01  3.5210992511792725e+00 0.0000000000000000e+00 8.6705618275761620e-01  3.6130901016995240e+00 0.0000000000000000e+00 8.8129320744892858e-01  3.7110211640460991e+00 0.0000000000000000e+00 8.8381321325372375e-01  3.8032382031551202e+00 0.0000000000000000e+00 8.9995037781263476e-01  3.8965982003858053e+00 0.0000000000000000e+00 9.1466489500328885e-01  3.9935805316284929e+00 0.0000000000000000e+00 9.1969459029006884e-01  4.0833466287553968e+00 0.0000000000000000e+00 9.2954719509071071e-01  4.1836135942483583e+00 0.0000000000000000e+00 9.2199931038359328e-01  4.2760386141025144e+00 0.0000000000000000e+00 9.3288986100269633e-01  4.3698444918932067e+00 0.0000000000000000e+00 9.4642048342700158e-01  4.4628636490078399e+00 0.0000000000000000e+00 9.6696024876149611e-01  4.5574606484678251e+00 0.0000000000000000e+00 9.8248198689957233e-01  4.6530605461886498e+00 0.0000000000000000e+00 9.9471877693455757e-01  4.7494789308571521e+00 0.0000000000000000e+00 1.0035223173199992e+00  4.8470585632708643e+00 0.0000000000000000e+00 1.0119803013458564e+00  4.9370271409020514e+00 0.0000000000000000e+00 1.0359779044016588e+00  5.0352903680363923e+00 0.0000000000000000e+00 1.0412412732570382e+00  5.1255151811125987e+00 0.0000000000000000e+00 1.0666408627863293e+00  5.2228021583299844e+00 0.0000000000000000e+00 1.0707792338529711e+00  5.3227006565455435e+00 0.0000000000000000e+00 1.0779333183532347e+00  5.4182503693377342e+00 0.0000000000000000e+00 1.0891116519402460e+00  5.5122365765001984e+00 0.0000000000000000e+00 1.1088931937645594e+00  5.6055741902404552e+00 0.0000000000000000e+00 1.1301816574371590e+00  5.7010471398969846e+00 0.0000000000000000e+00 1.1381705517547593e+00  5.7967975735485284e+00 0.0000000000000000e+00 1.1370323396747148e+00  5.8887230812955229e+00 0.0000000000000000e+00 1.1621212921641320e+00  5.9845630292500172e+00 0.0000000000000000e+00 1.1684637242696025e+00  6.0822564512957840e+00 0.0000000000000000e+00 1.1783932533297601e+00  6.1726721325217531e+00 0.0000000000000000e+00 1.2072775097773965e+00  6.2696661939086100e+00 0.0000000000000000e+00 1.2270452195692034e+00  6.3705688618850278e+00 0.0000000000000000e+00 1.2429519315689161e+00  6.4615294271299621e+00 0.0000000000000000e+00 1.2598584298281617e+00  6.5540613284364619e+00 0.0000000000000000e+00 1.2775148372860352e+00  6.6478921710488246e+00 0.0000000000000000e+00 1.2900187913422003e+00  6.7405370939737788e+00 0.0000000000000000e+00 1.3091918303028660e+00  6.8340276693059110e+00 0.0000000000000000e+00 1.3312866940427901e+00  6.9313158013008112e+00 0.0000000000000000e+00 1.3370190350109801e+00  7.0258221532573017e+00 0.0000000000000000e+00 1.3561136983042867e+00  7.1270878684288421e+00 0.0000000000000000e+00 1.3681313219800373e+00  7.2196310458214379e+00 0.0000000000000000e+00 1.3923013058008402e+00  7.3161560649715751e+00 0.0000000000000000e+00 1.4118502513216136e+00  7.4078308932695629e+00 0.0000000000000000e+00 1.4298942873292020e+00  7.5058886525394719e+00 0.0000000000000000e+00 1.4410050605168450e+00  7.5980375930520569e+00 0.0000000000000000e+00 1.4605803144261631e+00  7.6937932897778660e+00 0.0000000000000000e+00 1.4829784309182921e+00  7.7940279968776993e+00 0.0000000000000000e+00 1.4937385737685327e+00  7.8932567420929756e+00 0.0000000000000000e+00 1.5113803343514338e+00  7.9856979257430334e+00 0.0000000000000000e+00 1.5381602094004012e+00  8.0840322345160338e+00 0.0000000000000000e+00 1.5478389251375813e+00  8.1757326171871547e+00 0.0000000000000000e+00 1.5715490860767598e+00  8.2730557141621937e+00 0.0000000000000000e+00 1.5891564761833137e+00  8.3688939460948504e+00 0.0000000000000000e+00 1.5994533095928838e+00  8.4677995019225651e+00 0.0000000000000000e+00 1.6025733727593483e+00  8.5600808904252581e+00 0.0000000000000000e+00 1.6188796388299376e+00  8.6560963180212482e+00 0.0000000000000000e+00 1.6213067861939761e+00  8.7484605046876034e+00 0.0000000000000000e+00 1.6294538125182605e+00  8.8384880119757252e+00 0.0000000000000000e+00 1.6362719330029707e+00  8.9242166437423514e+00 0.0000000000000000e+00 1.6430011726873477e+00  9.0050911720763089e+00 0.0000000000000000e+00 1.6466729158130156e+00  9.0820576686746790e+00 0.0000000000000000e+00 1.6521996022936662e+00  9.1558791790490126e+00 0.0000000000000000e+00 1.6652252207689004e+00  9.2267807527236432e+00 0.0000000000000000e+00 1.6729260962115224e+00  9.2907217893298704e+00 0.0000000000000000e+00 1.6872300938528098e+00  9.3623518915522439e+00 1.2732422713511582e-01 1.7051463796228756e+00  9.4043700142636037e+00 2.6647004214449865e-01 1.6877207549277264e+00  9.4499769198471384e+00 4.1614667676333017e-01 1.6561792508732320e+00  9.5049099719042918e+00 5.8242255770731943e-01 1.6097932919990636e+00  9.6069025270768194e+00 7.7077140808215960e-01 1.4929158422921927e+00  9.6479403301495967e+00 8.9949136639818750e-01 1.3122801169634006e+00  9.5938449269780222e+00 9.9433367383522675e-01 1.1217050626016656e+00  9.5028843517109909e+00 1.0065440887769019e+00 1.0984579849396900e+00  9.4109419460920503e+00 1.0165625013298052e+00 1.0769897130367925e+00  9.3134381512253537e+00 1.0208116138160319e+00 1.0619833274809274e+00  9.2212988189269289e+00 1.0269984167736410e+00 1.0385105525125091e+00  9.1276737130232917e+00 1.0406087203135395e+00 1.0063518268268128e+00  9.0318911468920220e+00 1.0390694596216496e+00 9.7726171979199361e-01  8.9307822210222518e+00 1.0430848224197729e+00 9.5588571588263804e-01  8.8317361125613054e+00 1.0507105247727710e+00 9.3361447916626461e-01  8.7291498700299250e+00 1.0536715673782784e+00 9.1465337649654355e-01  8.6283667982217853e+00 1.0551456186281103e+00 8.9186428179279986e-01  8.5286305222089585e+00 1.0641755881597148e+00 8.6727699920695522e-01  8.4300852529459220e+00 1.0655640186852633e+00 8.5317374966942461e-01  8.3310274166439324e+00 1.0631180593597702e+00 8.3368107977944983e-01  8.2344797144361515e+00 1.0637254590279828e+00 8.0024109047426939e-01  8.1311809823983250e+00 1.0549935158770192e+00 7.8058969905204079e-01  8.0391991920510986e+00 1.0582749375806233e+00 7.7456723005359174e-01  7.9435054545590047e+00 1.0704977906062139e+00 7.6482613346708772e-01  7.8506954736106165e+00 1.0771541139875089e+00 7.4844918542832184e-01  7.7553090520240833e+00 1.0807937310804860e+00 7.3579268234818618e-01  7.6579345563696579e+00 1.0855578749245711e+00 7.2491512986807927e-01  7.5584259897486437e+00 1.0802410908043851e+00 7.1764859414063820e-01  7.4596574634188695e+00 1.0868347003252194e+00 6.9732305012960050e-01  7.3618564506550124e+00 1.0716204366663102e+00 6.7995084046558141e-01  7.2673186291075575e+00 1.0720641147596923e+00 6.5320927492377567e-01  7.1714022959410144e+00 1.0683524828017024e+00 6.3212056606910516e-01  7.0729972888077288e+00 1.0678515852923776e+00 6.1129451644464816e-01  6.9759037188328374e+00 1.0678642751391576e+00 5.8691225384073931e-01  6.8803518251084101e+00 1.0680988407970511e+00 5.6641679667128464e-01  6.7846759823962515e+00 1.0647733048376664e+00 5.5038715463162624e-01  6.6864957176503586e+00 1.0630032738277213e+00 5.3230360969393087e-01  6.5895225956477930e+00 1.0657120565760241e+00 5.1196316629603900e-01  6.4922460210753385e+00 1.0590148802504435e+00 4.9212800703784770e-01  6.3946579327506168e+00 1.0539838958891854e+00 4.6990004830872739e-01  6.2983790875748298e+00 1.0528931595436155e+00 4.5263058205553647e-01  6.2022643399393580e+00 1.0513469598918990e+00 4.3380940321062017e-01  6.1046913421051450e+00 1.0554493922050374e+00 4.1488516615641358e-01  6.0051339492636266e+00 1.0569714483347803e+00 4.0023378510465280e-01  5.9069635147970327e+00 1.0596192254220533e+00 3.7981667035058841e-01  5.8107958499946850e+00 1.0497995740772796e+00 3.6034601471801414e-01  5.7125183628593890e+00 1.0454185081695424e+00 3.4165593943009825e-01  5.6160401531162183e+00 1.0479019297801857e+00 3.2485663386229813e-01  5.5208068216250403e+00 1.0379142991497603e+00 3.1782907574258495e-01  5.4248712294023997e+00 1.0392609432019744e+00 3.0724599897233495e-01  5.3313742671149518e+00 1.0478866293252171e+00 2.9248845314339239e-01  5.2368350110781483e+00 1.0481438495196769e+00 2.8601094820913547e-01  5.1432888914236070e+00 1.0544971923004709e+00 2.7579320717713784e-01  5.0467501155761250e+00 1.0571656296724907e+00 2.6474155806866173e-01  4.9479441867792575e+00 1.0514331189831956e+00 2.5973248648823966e-01  4.8473534838611823e+00 1.0582977981258761e+00 2.5234925344363662e-01  4.7489275296271183e+00 1.0570080967883237e+00 2.4000073647068848e-01  4.6505882284808200e+00 1.0655165755058746e+00 2.1864885503125606e-01  4.5534202115169027e+00 1.0589627561397583e+00 2.1016156828916319e-01  4.4523641625123966e+00 1.0609915674760415e+00 1.8748239598042596e-01  4.3581559009278816e+00 1.0595650063620952e+00 1.7349839128412753e-01  4.2587499113905851e+00 1.0579090074145618e+00 1.7075802361195486e-01  4.1597656781268233e+00 1.0556690020366413e+00 1.7263448719264723e-01  4.0636145208827656e+00 1.0645439022603040e+00 1.6173414112146908e-01  3.9675356063341796e+00 1.0656202529968097e+00 1.5344023199017873e-01  3.8733962091735408e+00 1.0656645095943607e+00 1.4277880226820530e-01  3.7741031844808521e+00 1.0714488004055933e+00 1.3021672561929185e-01  3.6768960171480765e+00 1.0613695509185601e+00 1.2094115942446650e-01  3.5762782962334416e+00 1.0609137861678450e+00 1.1477225813010039e-01  3.4814859289888576e+00 1.0654765034133649e+00 9.8579015014449545e-02  3.3835493677673676e+00 1.0593306080778906e+00 9.6966234601340962e-02  3.2849936898203809e+00 1.0451718803995884e+00 9.9397558913016257e-02  3.1899608002123587e+00 1.0522971434200019e+00 8.1794228833594426e-02  3.0936254627166764e+00 1.0513282881903849e+00 6.9161319586071052e-02  2.9994830186557175e+00 1.0470935968804942e+00 6.2278758667693855e-02  2.9045383760871744e+00 1.0499722363393664e+00 5.5908107896095745e-02  2.8065582800524478e+00 1.0510394493756787e+00 5.5580893217086119e-02  2.7083261655094573e+00 1.0549839445518250e+00 5.1317057483867452e-02  2.6119272674097096e+00 1.0598955155228353e+00 4.3253168765024330e-02  2.5137384092874320e+00 1.0560800637274259e+00 4.2066318576228008e-02  2.4159087158807706e+00 1.0576046883539765e+00 3.7673881542220407e-02  2.3186901106141105e+00 1.0525186929896324e+00 3.6888824177198215e-02  2.2219920876492272e+00 1.0582768628602670e+00 3.1450300254764058e-02  2.1290771459114213e+00 1.0637439652643843e+00 2.6445991014211152e-02  2.0299192061729392e+00 1.0668014752546875e+00 2.3823250627754259e-02  1.9305640805013797e+00 1.0576715948252191e+00 3.1267837131670452e-02  1.8354171818091447e+00 1.0680496363722827e+00 2.4759829239297086e-02  1.7370037242238801e+00 1.0682044275574412e+00 2.4515377168956701e-02  1.6411109458988291e+00 1.0554139993124876e+00 2.7974074144078952e-02  1.5445815869893122e+00 1.0604223459153110e+00 1.9608941189480412e-02  1.4508924263274898e+00 1.0609036054478158e+00 1.2597590143516853e-02  1.3558811641083293e+00 1.0620183831817021e+00 1.2664450255796992e-02  1.2584471054112565e+00 1.0576928252168203e+00 2.0699422563559222e-02  1.1606223578743127e+00 1.0689502332709675e+00 1.4615087632138446e-02  1.0627553682327819e+00 1.0689824128062622e+00 1.0748064666589174e-02  9.6457325142513595e-01 1.0722047118222804e+00 1.0046838326289905e-02  8.6716351770749323e-01 1.0677151044866968e+00 3.7195779371186222e-03  7.7149381308781850e-01 1.0674867643234007e+00 2.8388410205098017e-03  6.7389500934183011e-01 1.0721050736703270e+00 7.2212231095667898e-04  5.7403820952098705e-01 1.0695306580538011e+00 9.4976018756270011e-03  4.7902592767985092e-01 1.0658827491340055e+00 1.2513309653219083e-02  3.8293806957015702e-01 1.0712529167546390e+00 6.0205623409357997e-03  2.8490113293822250e-01 1.0599626088769838e+00 4.5849266758991002e-03  1.9015021271836788e-01 1.0557657432647622e+00 0.0000000000000000e+00  9.3888932170659120e-02 1.0481888220357309e+00 0.0000000000000000e+00  9.6594563111882383e+00 8.0819279045364278e-01 1.1395128682720108e+00  9.6380839989362528e+00 6.3721634350906042e-01 1.1313131432140020e+00  9.6171818810958563e+00 4.7394945767955271e-01 1.1203821144986910e+00  9.6049456243394129e+00 3.1120828295981501e-01 1.1315050158215023e+00  9.5797857420657841e+00 1.4324973675456326e-01 1.1161161581780292e+00  9.4837077857211654e+00 0.0000000000000000e+00 1.0857553243572904e+00  9.4041300043345650e+00 0.0000000000000000e+00 1.0605968037282292e+00  9.3200645274247655e+00 0.0000000000000000e+00 1.0305414633740411e+00  9.2336595784505029e+00 0.0000000000000000e+00 1.0040742131095040e+00  9.1425522159870400e+00 0.0000000000000000e+00 9.9100090735255297e-01  9.0499195670115160e+00 0.0000000000000000e+00 9.6951419081668799e-01  8.9581730571704483e+00 0.0000000000000000e+00 9.4940538629942739e-01  8.8617897549441658e+00 0.0000000000000000e+00 9.3466110510933020e-01  8.7686327826255557e+00 0.0000000000000000e+00 9.1753922441237268e-01  8.6751436797029786e+00 0.0000000000000000e+00 8.9593715045299505e-01  8.5809731656654424e+00 0.0000000000000000e+00 8.8436176479942763e-01  8.4898144847176944e+00 0.0000000000000000e+00 8.6599391374426338e-01  8.3973290759592594e+00 0.0000000000000000e+00 8.5688074376243095e-01  8.2990512812922681e+00 0.0000000000000000e+00 8.4742323260090513e-01  8.2105290948971117e+00 0.0000000000000000e+00 8.2336953833067561e-01  8.1196202097724406e+00 0.0000000000000000e+00 8.0019936525308688e-01  8.0256067807883689e+00 0.0000000000000000e+00 7.8646687259342685e-01  7.9323827278568952e+00 0.0000000000000000e+00 7.6776335894821923e-01  7.8385658696297105e+00 0.0000000000000000e+00 7.3923820102078508e-01  7.7444096846832142e+00 0.0000000000000000e+00 7.2241339662393544e-01  7.6481159669231360e+00 0.0000000000000000e+00 7.0544495313865485e-01  7.5502650039396366e+00 0.0000000000000000e+00 6.9959550633763146e-01  7.4547029133655256e+00 0.0000000000000000e+00 6.8364553541478645e-01  7.3585860703819561e+00 0.0000000000000000e+00 6.6344143616092166e-01  7.2630501348439029e+00 0.0000000000000000e+00 6.4976759063798406e-01  7.1655378441763675e+00 0.0000000000000000e+00 6.3886071100323560e-01  7.0679866553447486e+00 0.0000000000000000e+00 6.1694613216081595e-01  6.9701729553462624e+00 0.0000000000000000e+00 5.9765434234309878e-01  6.8740319306811006e+00 0.0000000000000000e+00 5.7408614429901561e-01  6.7753042024625998e+00 0.0000000000000000e+00 5.6035828175309510e-01  6.6832304156234263e+00 0.0000000000000000e+00 5.3953864645099403e-01  6.5899709377601843e+00 0.0000000000000000e+00 5.2298869090399280e-01  6.4950700870752360e+00 0.0000000000000000e+00 5.1020627655352069e-01  6.3969395380695371e+00 0.0000000000000000e+00 4.9127975629570814e-01  6.2967281956928076e+00 0.0000000000000000e+00 4.7294795794876615e-01  6.1998159996931772e+00 0.0000000000000000e+00 4.5546663737963600e-01  6.1020269159975848e+00 0.0000000000000000e+00 4.3934716275198810e-01  6.0027242089828983e+00 0.0000000000000000e+00 4.3040871035797423e-01  5.9045326556100459e+00 0.0000000000000000e+00 4.2172862563466557e-01  5.8105342129415165e+00 0.0000000000000000e+00 4.1311847132444568e-01  5.7157768992038527e+00 0.0000000000000000e+00 3.9750288605592832e-01  5.6218245808425404e+00 0.0000000000000000e+00 3.8610699642346918e-01  5.5230160977063285e+00 0.0000000000000000e+00 3.7252094670144342e-01  5.4314943472327553e+00 0.0000000000000000e+00 3.4952323105016914e-01  5.3360185528633579e+00 0.0000000000000000e+00 3.3218114022428996e-01  5.2369263670328960e+00 0.0000000000000000e+00 3.2687055358521666e-01  5.1383825195423345e+00 0.0000000000000000e+00 3.1266257495200006e-01  5.0440724873059226e+00 0.0000000000000000e+00 2.9880072736520891e-01  4.9405804144132395e+00 0.0000000000000000e+00 2.8774053474374350e-01  4.8451078926304483e+00 0.0000000000000000e+00 2.7157723881736995e-01  4.7495223637145427e+00 0.0000000000000000e+00 2.4779001340494319e-01  4.6525387487719012e+00 0.0000000000000000e+00 2.3984443750439044e-01  4.5565310235580956e+00 0.0000000000000000e+00 2.2338485347076273e-01  4.4574079257088233e+00 0.0000000000000000e+00 2.2077836245378740e-01  4.3544837342002074e+00 0.0000000000000000e+00 2.1077122213628435e-01  