<?xml version="1.0"?>
<VTKFile type="UnstructuredGrid"  version="0.1"  >
<UnstructuredGrid>
<Piece  NumberOfPoints="3069" NumberOfCells="12882">
<Points>
<DataArray  type="Float64"  NumberOfComponents="3"  format="ascii">0 0 0  0 0 4  0 5.65685415 0  50 0 4  50 5.65685415 0  50 0 0  0 0 1  0 0 2  0 0 3  0 1.04967844 3.90746784  0 2.0669806 3.632725  0 3.02052855 3.18424606  0 3.88091111 2.5758636  0 4.62159061 1.82634306  0 5.21972132 0.958802283  0 4.71404505 0  0 3.77123618 0  0 2.82842708 0  0 1.88561809 0  0 0.942809045 0  0.5 0 4  1 0 4  1.5 0 4  2 0 4  2.5 0 4  3 0 4  3.5 0 4  4 0 4  4.5 0 4  5 0 4  5.5 0 4  6 0 4  6.5 0 4  7 0 4  7.5 0 4  8 0 4  8.5 0 4  9 0 4  9.5 0 4  10 0 4  10.5 0 4  11 0 4  11.5 0 4  12 0 4  12.5 0 4  13 0 4  13.5 0 4  14 0 4  14.5 0 4  15 0 4  15.5 0 4  16 0 4  16.5 0 4  17 0 4  17.5 0 4  18 0 4  18.5 0 4  19 0 4  19.5 0 4  20 0 4  20.5 0 4  21 0 4  21.5 0 4  22 0 4  22.5 0 4  23 0 4  23.5 0 4  24 0 4  24.5 0 4  25 0 4  25.5 0 4  26 0 4  26.5 0 4  27 0 4  27.5 0 4  28 0 4  28.5 0 4  29 0 4  29.5 0 4  30 0 4  30.5 0 4  31 0 4  31.5 0 4  32 0 4  32.5 0 4  33 0 4  33.5 0 4  34 0 4  34.5 0 4  35 0 4  35.5 0 4  36 0 4  36.5 0 4  37 0 4  37.5 0 4  38 0 4  38.5 0 4  39 0 4  39.5 0 4  40 0 4  40.5 0 4  41 0 4  41.5 0 4  42 0 4  42.5 0 4  43 0 4  43.5 0 4  44 0 4  44.5 0 4  45 0 4  45.5 0 4  46 0 4  46.5 0 4  47 0 4  47.5 0 4  48 0 4  48.5 0 4  49 0 4  49.5 0 4  50 1.04967844 3.90746784  50 2.0669806 3.632725  50 3.02052855 3.18424606  50 3.88091111 2.5758636  50 4.62159061 1.82634306  50 5.21972132 0.958802283  49.5 5.65685415 0  49 5.65685415 0  48.5 5.65685415 0  48 5.65685415 0  47.5 5.65685415 0  47 5.65685415 0  46.5 5.65685415 0  46 5.65685415 0  45.5 5.65685415 0  45 5.65685415 0  44.5 5.65685415 0  44 5.65685415 0  43.5 5.65685415 0  43 5.65685415 0  42.5 5.65685415 0  42 5.65685415 0  41.5 5.65685415 0  41 5.65685415 0  40.5 5.65685415 0  40 5.65685415 0  39.5 5.65685415 0  39 5.65685415 0  38.5 5.65685415 0  38 5.65685415 0  37.5 5.65685415 0  37 5.65685415 0  36.5 5.65685415 0  36 5.65685415 0  35.5 5.65685415 0  35 5.65685415 0  34.5 5.65685415 0  34 5.65685415 0  33.5 5.65685415 0  33 5.65685415 0  32.5 5.65685415 0  32 5.65685415 0  31.5 5.65685415 0  31 5.65685415 0  30.5 5.65685415 0  30 5.65685415 0  29.5 5.65685415 0  29 5.65685415 0  28.5 5.65685415 0  28 5.65685415 0  27.5 5.65685415 0  27 5.65685415 0  26.5 5.65685415 0  26 5.65685415 0  25.5 5.65685415 0  25 5.65685415 0  24.5 5.65685415 0  24 5.65685415 0  23.5 5.65685415 0  23 5.65685415 0  22.5 5.65685415 0  22 5.65685415 0  21.5 5.65685415 0  21 5.65685415 0  20.5 5.65685415 0  20 5.65685415 0  19.5 5.65685415 0  19 5.65685415 0  18.5 5.65685415 0  18 5.65685415 0  17.5 5.65685415 0  17 5.65685415 0  16.5 5.65685415 0  16 5.65685415 0  15.5 5.65685415 0  15 5.65685415 0  14.5 5.65685415 0  14 5.65685415 0  13.5 5.65685415 0  13 5.65685415 0  12.5 5.65685415 0  12 5.65685415 0  11.5 5.65685415 0  11 5.65685415 0  10.5 5.65685415 0  10 5.65685415 0  9.5 5.65685415 0  9 5.65685415 0  8.5 5.65685415 0  8 5.65685415 0  7.5 5.65685415 0  7 5.65685415 0  6.5 5.65685415 0  6 5.65685415 0  5.5 5.65685415 0  5 5.65685415 0  4.5 5.65685415 0  4 5.65685415 0  3.5 5.65685415 0  3 5.65685415 0  2.5 5.65685415 0  2 5.65685415 0  1.5 5.65685415 0  1 5.65685415 0  0.5 5.65685415 0  50 4.71404505 0  50 3.77123618 0  50 2.82842708 0  50 1.88561809 0  50 0.942809045 0  49.5 0 0  49 0 0  48.5 0 0  48 0 0  47.5 0 0  47 0 0  46.5 0 0  46 0 0  45.5 0 0  45 0 0  44.5 0 0  44 0 0  43.5 0 0  43 0 0  42.5 0 0  42 0 0  41.5 0 0  41 0 0  40.5 0 0  40 0 0  39.5 0 0  39 0 0  38.5 0 0  38 0 0  37.5 0 0  37 0 0  36.5 0 0  36 0 0  35.5 0 0  35 0 0  34.5 0 0  34 0 0  33.5 0 0  33 0 0  32.5 0 0  32 0 0  31.5 0 0  31 0 0  30.5 0 0  30 0 0  29.5 0 0  29 0 0  28.5 0 0  28 0 0  27.5 0 0  27 0 0  26.5 0 0  26 0 0  25.5 0 0  25 0 0  24.5 0 0  24 0 0  23.5 0 0  23 0 0  22.5 0 0  22 0 0  21.5 0 0  21 0 0  20.5 0 0  20 0 0  19.5 0 0  19 0 0  18.5 0 0  18 0 0  17.5 0 0  17 0 0  16.5 0 0  16 0 0  15.5 0 0  15 0 0  14.5 0 0  14 0 0  13.5 0 0  13 0 0  12.5 0 0  12 0 0  11.5 0 0  11 0 0  10.5 0 0  10 0 0  9.5 0 0  9 0 0  8.5 0 0  8 0 0  7.5 0 0  7 0 0  6.5 0 0  6 0 0  5.5 0 0  5 0 0  4.5 0 0  4 0 0  3.5 0 0  3 0 0  2.5 0 0  2 0 0  1.5 0 0  1 0 0  0.5 0 0  50 0 1  50 0 2  50 0 3  0 2.33524275 0.893602192  0 2.87561393 1.93323028  0 4.2367816 0.876864135  0 2.00050235 2.65534091  0 0.981494486 2.34323239  0 3.78543234 1.61830366  0 3.30545568 0.887000024  0 0.812916458 1.58408713  0 1.71948838 1.71268857  0 1.28267908 0.8650629520000001  0 1.21973121 3.10775328  0.5 5.21972132 0.958802223  0.5 4.62159061 1.82634306  0.5 3.88091111 2.5758636  0.5 3.02052855 3.18424606  0.5 2.0669806 3.632725  0.5 1.04967844 3.90746784  1 5.21972132 0.958802223  1 4.62159061 1.82634306  1 3.88091111 2.5758636  1 3.02052855 3.18424606  1 2.0669806 3.632725  1 1.04967844 3.90746784  1.5 5.21972132 0.958802223  1.5 4.62159061 1.82634306  1.5 3.88091111 2.5758636  1.5 3.02052855 3.18424606  1.5 2.0669806 3.632725  1.5 1.04967844 3.90746784  2 5.21972132 0.958802223  2 4.62159061 1.82634306  2 3.88091111 2.5758636  2 3.02052855 3.18424606  2 2.0669806 3.632725  2 1.04967844 3.90746784  2.5 5.21972132 0.958802223  2.5 4.62159061 1.82634306  2.5 3.88091111 2.5758636  2.5 3.02052855 3.18424606  2.5 2.0669806 3.632725  2.5 1.04967844 3.90746784  3 5.21972132 0.958802223  3 4.62159061 1.82634306  3 3.88091111 2.5758636  3 3.02052855 3.18424606  3 2.0669806 3.632725  3 1.04967844 3.90746784  3.5 5.21972132 0.958802223  3.5 4.62159061 1.82634306  3.5 3.88091111 2.5758636  3.5 3.02052855 3.18424606  3.5 2.0669806 3.632725  3.5 1.04967844 3.90746784  4 5.21972132 0.958802223  4 4.62159061 1.82634306  4 3.88091111 2.5758636  4 3.02052855 3.18424606  4 2.0669806 3.632725  4 1.04967844 3.90746784  4.5 5.21972132 0.958802223  4.5 4.62159061 1.82634306  4.5 3.88091111 2.5758636  4.5 3.02052855 3.18424606  4.5 2.0669806 3.632725  4.5 1.04967844 3.90746784  5 5.21972132 0.958802223  5 4.62159061 1.82634306  5 3.88091111 2.5758636  5 3.02052855 3.18424606  5 2.0669806 3.632725  5 1.04967844 3.90746784  5.5 5.21972132 0.958802223  5.5 4.62159061 1.82634306  5.5 3.88091111 2.5758636  5.5 3.02052855 3.18424606  5.5 2.0669806 3.632725  5.5 1.04967844 3.90746784  6 5.21972132 0.958802223  6 4.62159061 1.82634306  6 3.88091111 2.5758636  6 3.02052855 3.18424606  6 2.0669806 3.632725  6 1.04967844 3.90746784  6.5 5.21972132 0.958802223  6.5 4.62159061 1.82634306  6.5 3.88091111 2.5758636  6.5 3.02052855 3.18424606  6.5 2.0669806 3.632725  6.5 1.04967844 3.90746784  7 5.21972132 0.958802223  7 4.62159061 1.82634306  7 3.88091111 2.5758636  7 3.02052855 3.18424606  7 2.0669806 3.632725  7 1.04967844 3.90746784  7.5 5.21972132 0.958802223  7.5 4.62159061 1.82634306  7.5 3.88091111 2.5758636  7.5 3.02052855 3.18424606  7.5 2.0669806 3.632725  7.5 1.04967844 3.90746784  8 5.21972132 0.958802223  8 4.62159061 1.82634306  8 3.88091111 2.5758636  8 3.02052855 3.18424606  8 2.0669806 3.632725  8 1.04967844 3.90746784  8.5 5.21972132 0.958802223  8.5 4.62159061 1.82634306  8.5 3.88091111 2.5758636  8.5 3.02052855 3.18424606  8.5 2.0669806 3.632725  8.5 1.04967844 3.90746784  9 5.21972132 0.958802223  9 4.62159061 1.82634306  9 3.88091111 2.5758636  9 3.02052855 3.18424606  9 2.0669806 3.632725  9 1.04967844 3.90746784  9.5 5.21972132 0.958802223  9.5 4.62159061 1.82634306  9.5 3.88091111 2.5758636  9.5 3.02052855 3.18424606  9.5 2.0669806 3.632725  9.5 1.04967844 3.90746784  10 5.21972132 0.958802223  10 4.62159061 1.82634306  10 3.88091111 2.5758636  10 3.02052855 3.18424606  10 2.0669806 3.632725  10 1.04967844 3.90746784  10.5 5.21972132 0.958802223  10.5 4.62159061 1.82634306  10.5 3.88091111 2.5758636  10.5 3.02052855 3.18424606  10.5 2.0669806 3.632725  10.5 1.04967844 3.90746784  11 5.21972132 0.958802223  11 4.62159061 1.82634306  11 3.88091111 2.5758636  11 3.02052855 3.18424606  11 2.0669806 3.632725  11 1.04967844 3.90746784  11.5 5.21972132 0.958802223  11.5 4.62159061 1.82634306  11.5 3.88091111 2.5758636  11.5 3.02052855 3.18424606  11.5 2.0669806 3.632725  11.5 1.04967844 3.90746784  12 5.21972132 0.958802223  12 4.62159061 1.82634306  12 3.88091111 2.5758636  12 3.02052855 3.18424606  12 2.0669806 3.632725  12 1.04967844 3.90746784  12.5 5.21972132 0.958802223  12.5 4.62159061 1.82634306  12.5 3.88091111 2.5758636  12.5 3.02052855 3.18424606  12.5 2.0669806 3.632725  12.5 1.04967844 3.90746784  13 5.21972132 0.958802223  13 4.62159061 1.82634306  13 3.88091111 2.5758636  13 3.02052855 3.18424606  13 2.0669806 3.632725  13 1.04967844 3.90746784  13.5 5.21972132 0.958802223  13.5 4.62159061 1.82634306  13.5 3.88091111 2.5758636  13.5 3.02052855 3.18424606  13.5 2.0669806 3.632725  13.5 1.04967844 3.90746784  14 5.21972132 0.958802223  14 4.62159061 1.82634306  14 3.88091111 2.5758636  14 3.02052855 3.18424606  14 2.0669806 3.632725  14 1.04967844 3.90746784  14.5 5.21972132 0.958802223  14.5 4.62159061 1.82634306  14.5 3.88091111 2.5758636  14.5 3.02052855 3.18424606  14.5 2.0669806 3.632725  14.5 1.04967844 3.90746784  15 5.21972132 0.958802223  15 4.62159061 1.82634306  15 3.88091111 2.5758636  15 3.02052855 3.18424606  15 2.0669806 3.632725  15 1.04967844 3.90746784  15.5 5.21972132 0.958802223  15.5 4.62159061 1.82634306  15.5 3.88091111 2.5758636  15.5 3.02052855 3.18424606  15.5 2.0669806 3.632725  15.5 1.04967844 3.90746784  16 5.21972132 0.958802223  16 4.62159061 1.82634306  16 3.88091111 2.5758636  16 3.02052855 3.18424606  16 2.0669806 3.632725  16 1.04967844 3.90746784  16.5 5.21972132 0.958802223  16.5 4.62159061 1.82634306  16.5 3.88091111 2.5758636  16.5 3.02052855 3.18424606  16.5 2.0669806 3.632725  16.5 1.04967844 3.90746784  17 5.21972132 0.958802223  17 4.62159061 1.82634306  17 3.88091111 2.5758636  17 3.02052855 3.18424606  17 2.0669806 3.632725  17 1.04967844 3.90746784  17.5 5.21972132 0.958802223  17.5 4.62159061 1.82634306  17.5 3.88091111 2.5758636  17.5 3.02052855 3.18424606  17.
[...]
<PointData  Vectors="f_261141-0"> 
<DataArray  type="Float64"  Name="f_261141-0"  NumberOfComponents="3" format="ascii">0.0000000000000000e+00 0.0000000000000000e+00 0.0000000000000000e+00  0.0000000000000000e+00 0.0000000000000000e+00 7.8242151807193183e-01  0.0000000000000000e+00 1.0417069213498849e+00 0.0000000000000000e+00  9.7141860794550663e+00 0.0000000000000000e+00 -9.8019058098413425e-01  9.1869895628007132e+00 1.1083805695417133e+00 -1.9954144056543552e+00  9.2898545434683246e+00 0.0000000000000000e+00 -1.8877003521978697e+00  0.0000000000000000e+00 0.0000000000000000e+00 1.7564175954230604e-01  0.0000000000000000e+00 0.0000000000000000e+00 3.8316477684466799e-01  0.0000000000000000e+00 0.0000000000000000e+00 6.0111082145419359e-01  0.0000000000000000e+00 2.2274614488696556e-01 7.5521108168406625e-01  0.0000000000000000e+00 4.0969105217918217e-01 6.8074563563599244e-01  0.0000000000000000e+00 5.8568799228070056e-01 5.9035131498502813e-01  0.0000000000000000e+00 7.3977472646312292e-01 4.7263592882551553e-01  0.0000000000000000e+00 8.6931246507048798e-01 3.2712614065158191e-01  0.0000000000000000e+00 9.7132714703136080e-01 1.7056817281785339e-01  0.0000000000000000e+00 8.7613608469087056e-01 0.0000000000000000e+00  0.0000000000000000e+00 7.0744264190587669e-01 0.0000000000000000e+00  0.0000000000000000e+00 5.3820561840159387e-01 0.0000000000000000e+00  0.0000000000000000e+00 3.6590536206581536e-01 0.0000000000000000e+00  0.0000000000000000e+00 1.8617905284689210e-01 0.0000000000000000e+00  9.5076526054502300e-02 0.0000000000000000e+00 7.8361712451956933e-01  1.9148711181001815e-01 0.0000000000000000e+00 7.8379448842157540e-01  2.8784240770291236e-01 0.0000000000000000e+00 7.8434242728485670e-01  3.8533673123283657e-01 0.0000000000000000e+00 7.8205283169712325e-01  4.7874024049870717e-01 0.0000000000000000e+00 7.8635767629152309e-01  5.7714620518798287e-01 0.0000000000000000e+00 7.8070241097296811e-01  6.7130244379760085e-01 0.0000000000000000e+00 7.7942718564741043e-01  7.6966212900535547e-01 0.0000000000000000e+00 7.7261594346735751e-01  8.6578713578825883e-01 0.0000000000000000e+00 7.6713175832249580e-01  9.6148211289582641e-01 0.0000000000000000e+00 7.6045276876165835e-01  1.0563895097414551e+00 0.0000000000000000e+00 7.5747620923387649e-01  1.1523586873457312e+00 0.0000000000000000e+00 7.5701697053759753e-01  1.2485692298212323e+00 0.0000000000000000e+00 7.5372507485422879e-01  1.3475937572925187e+00 0.0000000000000000e+00 7.4356794917854563e-01  1.4413233560870349e+00 0.0000000000000000e+00 7.4109781846602762e-01  1.5399482087113381e+00 0.0000000000000000e+00 7.3400390068667165e-01  1.6359783163744208e+00 0.0000000000000000e+00 7.2765481601953785e-01  1.7323047607812654e+00 0.0000000000000000e+00 7.1968112781491056e-01  1.8272136170363924e+00 0.0000000000000000e+00 7.1528614037192650e-01  1.9224269342082865e+00 0.0000000000000000e+00 7.0948935118606726e-01  2.0179360085362528e+00 0.0000000000000000e+00 7.0665714498115673e-01  2.1131546988869121e+00 0.0000000000000000e+00 6.9563527114459700e-01  2.2098549393036495e+00 0.0000000000000000e+00 6.8977978642400251e-01  2.3063332442068667e+00 0.0000000000000000e+00 6.7996709883723339e-01  2.4009234382373714e+00 0.0000000000000000e+00 6.7489540123522473e-01  2.4987870930204319e+00 0.0000000000000000e+00 6.6185329849168417e-01  2.5955285501951617e+00 0.0000000000000000e+00 6.5023591792140945e-01  2.6900705834269587e+00 0.0000000000000000e+00 6.4314506312421815e-01  2.7868387358507571e+00 0.0000000000000000e+00 6.3188289072146597e-01  2.8843402791497375e+00 0.0000000000000000e+00 6.1584527819998136e-01  2.9752624301526414e+00 0.0000000000000000e+00 6.1607352634851764e-01  3.0698106060367456e+00 0.0000000000000000e+00 6.0105455139066810e-01  3.1663940483842206e+00 0.0000000000000000e+00 5.8675498471845844e-01  3.2633114273498576e+00 0.0000000000000000e+00 5.7232601262915572e-01  3.3613591346280467e+00 0.0000000000000000e+00 5.5795112147065773e-01  3.4582249843363244e+00 0.0000000000000000e+00 5.4575136691546799e-01  3.5556879892976125e+00 0.0000000000000000e+00 5.3255812045899686e-01  3.6508567077401879e+00 0.0000000000000000e+00 5.2247420457009863e-01  3.7484157606363144e+00 0.0000000000000000e+00 5.0415132936197782e-01  3.8437588954324600e+00 0.0000000000000000e+00 4.9203295850945100e-01  3.9369481592397579e+00 0.0000000000000000e+00 4.8088911313725929e-01  4.0347172579880430e+00 0.0000000000000000e+00 4.6595870845523713e-01  4.1289989453539988e+00 0.0000000000000000e+00 4.5135905129330117e-01  4.2280086509404162e+00 0.0000000000000000e+00 4.2767499633738898e-01  4.3214072567854629e+00 0.0000000000000000e+00 4.1380729336821215e-01  4.4165149081869499e+00 0.0000000000000000e+00 3.9618913942013761e-01  4.5120503326264121e+00 0.0000000000000000e+00 3.8245438723006525e-01  4.6089544942310852e+00 0.0000000000000000e+00 3.6379897806808897e-01  4.7047057334752305e+00 0.0000000000000000e+00 3.4708679629187839e-01  4.8014553635583752e+00 0.0000000000000000e+00 3.2815687446955272e-01  4.8982495896276212e+00 0.0000000000000000e+00 3.0687573122660838e-01  4.9927696100607779e+00 0.0000000000000000e+00 2.9167957934571248e-01  5.0900903099111492e+00 0.0000000000000000e+00 2.6787314383790112e-01  5.1842902562737079e+00 0.0000000000000000e+00 2.5172373128711056e-01  5.2804979218663259e+00 0.0000000000000000e+00 2.2980883559225398e-01  5.3788318498373879e+00 0.0000000000000000e+00 2.0908068242863861e-01  5.4742596354428121e+00 0.0000000000000000e+00 1.8659248826460795e-01  5.5686925510860670e+00 0.0000000000000000e+00 1.6669703789346435e-01  5.6644360566574248e+00 0.0000000000000000e+00 1.4799851922559554e-01  5.7619618247529258e+00 0.0000000000000000e+00 1.2169561214524120e-01  5.8576161842215706e+00 0.0000000000000000e+00 9.4933292802648117e-02  5.9519681564086122e+00 0.0000000000000000e+00 7.6236422418166819e-02  6.0482994873997473e+00 0.0000000000000000e+00 5.0697793987227915e-02  6.1445058015412251e+00 0.0000000000000000e+00 2.5701812652017233e-02  6.2386059792479562e+00 0.0000000000000000e+00 7.7033490498910218e-03  6.3363168613208547e+00 0.0000000000000000e+00 -1.8638969159653494e-02  6.4330356808339877e+00 0.0000000000000000e+00 -4.3307215440926680e-02  6.5272584596911614e+00 0.0000000000000000e+00 -6.7853372639370774e-02  6.6239035533273123e+00 0.0000000000000000e+00 -9.6323520518622627e-02  6.7183913495522480e+00 0.0000000000000000e+00 -1.2311984292713503e-01  6.8133562932712346e+00 0.0000000000000000e+00 -1.4783358078712883e-01  6.9085990625487961e+00 0.0000000000000000e+00 -1.7691119428557292e-01  7.0058011001339207e+00 0.0000000000000000e+00 -2.0873949876534981e-01  7.1016792425160418e+00 0.0000000000000000e+00 -2.3691127554513794e-01  7.1978393324530412e+00 0.0000000000000000e+00 -2.6424175508888220e-01  7.2917622457535689e+00 0.0000000000000000e+00 -2.9191125971487114e-01  7.3885959241681345e+00 0.0000000000000000e+00 -3.2220572599103575e-01  7.4830973667860281e+00 0.0000000000000000e+00 -3.4997951496990132e-01  7.5807090776489581e+00 0.0000000000000000e+00 -3.8561108115955567e-01  7.6754491303961574e+00 0.0000000000000000e+00 -4.1554786733868226e-01  7.7699738272820893e+00 0.0000000000000000e+00 -4.4464819966758867e-01  7.8680270175653098e+00 0.0000000000000000e+00 -4.7749496958767357e-01  7.9643982548283976e+00 0.0000000000000000e+00 -5.1084897374567995e-01  8.0576573704628700e+00 0.0000000000000000e+00 -5.3798709732764560e-01  8.1547158659411636e+00 0.0000000000000000e+00 -5.7397441251009340e-01  8.2488376425746210e+00 0.0000000000000000e+00 -6.0387848652727094e-01  8.3438730283850884e+00 0.0000000000000000e+00 -6.3348067622821402e-01  8.4395839457235482e+00 0.0000000000000000e+00 -6.6834724648117461e-01  8.5354017100047610e+00 0.0000000000000000e+00 -7.0439937291266541e-01  8.6292594089386725e+00 0.0000000000000000e+00 -7.3379415766463130e-01  8.7259634083551543e+00 0.0000000000000000e+00 -7.6927640315500767e-01  8.8196742237152943e+00 0.0000000000000000e+00 -7.9756835560940742e-01  8.9155714191687352e+00 0.0000000000000000e+00 -8.2776490600293462e-01  9.0111561821808657e+00 0.0000000000000000e+00 -8.4832991399162716e-01  9.1096931807671453e+00 0.0000000000000000e+00 -8.6623110100788414e-01  9.2153675225079201e+00 0.0000000000000000e+00 -8.7692062995021736e-01  9.3291401557366260e+00 0.0000000000000000e+00 -8.8362593491833397e-01  9.4525485402996132e+00 0.0000000000000000e+00 -9.0275347728331024e-01  9.5836330034939117e+00 0.0000000000000000e+00 -9.3761711735197750e-01  9.6870162918929648e+00 2.8226853910134192e-01 -1.0035024928057990e+00  9.6414089129680818e+00 5.3361688222363768e-01 -1.1044737789289645e+00  9.5726986700962140e+00 7.4672472609753238e-01 -1.2483425220376025e+00  9.4870440026569192e+00 9.0446284998545490e-01 -1.4234851623601563e+00  9.3914286654668171e+00 1.0163319847934016e+00 -1.6143473046953489e+00  9.2860048133548165e+00 1.0814948200342573e+00 -1.8066626554640668e+00  9.0975501047644975e+00 1.0946700237099005e+00 -1.9473544635386626e+00  9.0085848963819810e+00 1.0826921230868369e+00 -1.8961661534621710e+00  8.9208841490707229e+00 1.0730712306769481e+00 -1.8465082954736161e+00  8.8329176716226225e+00 1.0621384812668622e+00 -1.7955065939079842e+00  8.7466837355353828e+00 1.0534372563977497e+00 -1.7499359982019789e+00  8.6613784504991465e+00 1.0483694026694743e+00 -1.7065537656633503e+00  8.5763406234731381e+00 1.0437757860133958e+00 -1.6633475581694390e+00  8.4907989657257623e+00 1.0419113009055290e+00 -1.6213271459948724e+00  8.4043870472221265e+00 1.0399808082454440e+00 -1.5788623070946715e+00  8.3182424951635028e+00 1.0386836860436730e+00 -1.5383637522243221e+00  8.2309361929615985e+00 1.0383177327192736e+00 -1.4978157445564100e+00  8.1431472934653524e+00 1.0402351403297658e+00 -1.4603811879189719e+00  8.0545218062655213e+00 1.0398856079028838e+00 -1.4224475432254577e+00  7.9653974682007274e+00 1.0395214837451474e+00 -1.3857488012963048e+00  7.8764185631701791e+00 1.0409961933658172e+00 -1.3522300690954256e+00  7.7852283613389135e+00 1.0405439746163461e+00 -1.3173889198334625e+00  7.6956822519493215e+00 1.0416693986834731e+00 -1.2820211000063682e+00  7.6052367111143608e+00 1.0436259462838422e+00 -1.2482341881424108e+00  7.5149766453014504e+00 1.0443931752120190e+00 -1.2157037377006743e+00  7.4241155206571712e+00 1.0461585544470551e+00 -1.1830382159409409e+00  7.3330603328721349e+00 1.0472468904516699e+00 -1.1505524330410233e+00  7.2416215348535058e+00 1.0477033430736811e+00 -1.1182275431735755e+00  7.1497920674908242e+00 1.0489830095571684e+00 -1.0877163917445027e+00  7.0580888150003043e+00 1.0473208673908343e+00 -1.0576660692047424e+00  6.9663423908029118e+00 1.0483037366513668e+00 -1.0293280118839796e+00  6.8744297290331344e+00 1.0488745415073355e+00 -1.0009399496807181e+00  6.7820895291424730e+00 1.0492577885794765e+00 -9.7305154423783091e-01  6.6897408348082399e+00 1.0490077602464327e+00 -9.4555679414410387e-01  6.5973369953571224e+00 1.0500392159620853e+00 -9.1904062045472878e-01  6.5048925469853787e+00 1.0493149413135601e+00 -8.9177270925406582e-01  6.4122906169058300e+00 1.0496533319790855e+00 -8.6556794591082342e-01  6.3197468694069538e+00 1.0505930120584805e+00 -8.4017029138523336e-01  6.2271879267030048e+00 1.0493875297116459e+00 -8.1473700940236948e-01  6.1344183036502642e+00 1.0485750971312513e+00 -7.8989798006795975e-01  6.0418983229769285e+00 1.0482624565278786e+00 -7.6564268449149742e-01  5.9493236690281988e+00 1.0476596397639948e+00 -7.4139749815473333e-01  5.8569298859891044e+00 1.0471551250453768e+00 -7.1735786511540356e-01  5.7642765974673171e+00 1.0484763364682712e+00 -6.9385554421066387e-01  5.6715716132413165e+00 1.0495735547373601e+00 -6.7123709926996422e-01  5.5790135681111357e+00 1.0479134154719689e+00 -6.4840492860367127e-01  5.4862807699326570e+00 1.0474962864462725e+00 -6.2619996153721258e-01  5.3936168789400183e+00 1.0483013504789385e+00 -6.0478846387473939e-01  5.3012564526965660e+00 1.0468349884736492e+00 -5.8262177215603594e-01  5.2085557728685101e+00 1.0474557393514083e+00 -5.6138079552417708e-01  5.1158673019806997e+00 1.0481587390751008e+00 -5.4085093191426636e-01  5.0232614657075159e+00 1.0477735817158962e+00 -5.1992550190056697e-01  4.9310258689643049e+00 1.0478397284579479e+00 -4.9984655213126805e-01  4.8383644985809209e+00 1.0486273262762094e+00 -4.8040383121300623e-01  4.7456674396050538e+00 1.0477313451730956e+00 -4.6005957615605059e-01  4.6525929750539667e+00 1.0482770858861292e+00 -4.4003969989955033e-01  4.5598101065109979e+00 1.0488306512881804e+00 -4.2216185500840253e-01  4.4665961016986184e+00 1.0495050172454805e+00 -4.0527753453369025e-01  4.3733286937938951e+00 1.0478213342532330e+00 -3.8793337594036265e-01  4.2811845373773840e+00 1.0487672922801297e+00 -3.7029843264257273e-01  4.1885681726473356e+00 1.0487960786911368e+00 -3.5443962689900632e-01  4.0955386322492329e+00 1.0488767595427975e+00 -3.3783034754260749e-01  4.0025941251159463e+00 1.0480519430704436e+00 -3.2102802204705133e-01  3.9096574270792446e+00 1.0490712555530628e+00 -3.0569320921580911e-01  3.8170443911802292e+00 1.0487937443565980e+00 -2.9110016457051191e-01  3.7246035520065943e+00 1.0488493295843422e+00 -2.7701841692173929e-01  3.6315138994135800e+00 1.0500694832072226e+00 -2.6355439572073741e-01  3.5386137278997638e+00 1.0487675220053814e+00 -2.4982806642314143e-01  3.4452892889244917e+00 1.0482973660851094e+00 -2.3645205186052601e-01  3.3522495239038728e+00 1.0488275921283654e+00 -2.2425786807734774e-01  3.2591767541516745e+00 1.0480738219771060e+00 -2.1151273695110312e-01  3.1660631187979003e+00 1.0458124147890548e+00 -1.9845461668006992e-01  3.0732050072261852e+00 1.0462139038935694e+00 -1.8818961160409714e-01  2.9802126540239180e+00 1.0453970996427222e+00 -1.7703484578185960e-01  2.8873750877046165e+00 1.0459980633865205e+00 -1.6598102686120877e-01  2.7946175779368114e+00 1.0460908997071088e+00 -1.5475881997502536e-01  2.7014855950954568e+00 1.0461816055660722e+00 -1.4355481707677104e-01  2.6081979094424876e+00 1.0462145514174337e+00 -1.3302728333697494e-01  2.5150970893457640e+00 1.0468846208552776e+00 -1.2366750217412949e-01  2.4220880529858424e+00 1.0469749691491821e+00 -1.1408417694731325e-01  2.3289834091642785e+00 1.0471384480334305e+00 -1.0464137629619245e-01  2.2360956185790748e+00 1.0463657401868356e+00 -9.5397644275420745e-02  2.1432822055909933e+00 1.0463126158151819e+00 -8.7417227921004842e-02  2.0504707767169057e+00 1.0472020390813999e+00 -7.9737351102762657e-02  1.9571536711280533e+00 1.0472166285014950e+00 -7.2135259170042862e-02  1.8637872222231182e+00 1.0465182901246695e+00 -6.3781090669045928e-02  1.7706612490991507e+00 1.0476691667384479e+00 -5.7067740744835414e-02  1.6772205255151125e+00 1.0483186249075405e+00 -5.0245976149790927e-02  1.5839894248358610e+00 1.0465505858891335e+00 -4.2921537234647818e-02  1.4907678050447952e+00 1.0467795485298841e+00 -3.7631780632151481e-02  1.3978823579911972e+00 1.0464907269882475e+00 -3.2793433278667544e-02  1.3048978722741835e+00 1.0467692692833523e+00 -2.7715580133386375e-02  1.2118716184893352e+00 1.0463009690259522e+00 -2.1942383448810672e-02  1.1188126884428415e+00 1.0475895182067614e+00 -1.8331692453144883e-02  1.0256820310915828e+00 1.0478932436554120e+00 -1.4571789824041457e-02  9.3245215576643958e-01 1.0477816556982154e+00 -1.0942159432611159e-02  8.3898895124944617e-01 1.0472557541041843e+00 -7.9938541513727493e-03  7.4574801949861336e-01 1.0468574542098918e+00 -5.8338371108037764e-03  6.5229537335539256e-01 1.0467466947165287e+00 -3.9489062792554012e-03  5.5867905948226715e-01 1.0459081396459042e+00 -1.5806617196695845e-03  4.6552014303424621e-01 1.0450948129711097e+00 -3.6995474525546696e-04  3.7225688368519477e-01 1.0453947523450293e+00 -5.6564168744890127e-04  2.7904352869340315e-01 1.0433980775205776e+00 -5.9358838553228249e-05  1.8589841965393533e-01 1.0428314942404122e+00 0.0000000000000000e+00  9.2858810999648975e-02 1.0412406646561685e+00 0.0000000000000000e+00  9.2103804940555740e+00 9.3894802466393912e-01 -1.9598235734851450e+00  9.2312876439958327e+00 7.5875462726348963e-01 -1.9354814340901407e+00  9.2552412866662053e+00 5.8195536372054313e-01 -1.9166844114793480e+00  9.2657135381101607e+00 3.8435930310548855e-01 -1.9079591435942047e+00  9.2806128194771542e+00 1.8909322199980927e-01 -1.8967972873741619e+00  9.2028929382926226e+00 0.0000000000000000e+00 -1.8404984176867769e+00  9.1135659477570101e+00 0.0000000000000000e+00 -1.7987380208694865e+00  9.0219301377262475e+00 0.0000000000000000e+00 -1.7523593840383571e+00  8.9284830819437957e+00 0.0000000000000000e+00 -1.7127569053369034e+00  8.8361629385508991e+00 0.0000000000000000e+00 -1.6786856817733540e+00  8.7419082871468099e+00 0.0000000000000000e+00 -1.6407914661149599e+00  8.6496664828198035e+00 0.0000000000000000e+00 -1.6085601360770394e+00  8.5548054986597570e+00 0.0000000000000000e+00 -1.5768351046551723e+00  8.4594244640538676e+00 0.0000000000000000e+00 -1.5391099322929298e+00  8.3654358777315885e+00 0.0000000000000000e+00 -1.5122690815068307e+00  8.2711840357446391e+00 0.0000000000000000e+00 -1.4818804479626884e+00  8.1781248295657303e+00 0.0000000000000000e+00 -1.4480359330137909e+00  8.0847402647577749e+00 0.0000000000000000e+00 -1.4129223990592352e+00  7.9898853081551939e+00 0.0000000000000000e+00 -1.3782921218034299e+00  7.8971503176509854e+00 0.0000000000000000e+00 -1.3521758197618865e+00  7.8050244877870014e+00 0.0000000000000000e+00 -1.3225021608411054e+00  7.7129215725318181e+00 0.0000000000000000e+00 -1.2893266809659270e+00  7.6183824909575835e+00 0.0000000000000000e+00 -1.2550415544622557e+00  7.5241955808856993e+00 0.0000000000000000e+00 -1.2314632443153948e+00  7.4319044002318178e+00 0.0000000000000000e+00 -1.1989941705143756e+00  7.3385853064783753e+00 0.0000000000000000e+00 -1.1664646644172967e+00  7.2473283108386237e+00 0.0000000000000000e+00 -1.1399697600997079e+00  7.1543055535542672e+00 0.0000000000000000e+00 -1.1065821081219600e+00  7.0607279261060603e+00 0.0000000000000000e+00 -1.0809249874743598e+00  6.9693918581118153e+00 0.0000000000000000e+00 -1.0521193515516636e+00  6.8770665759662934e+00 0.0000000000000000e+00 -1.0212840396374836e+00  6.7833625809178875e+00 0.0000000000000000e+00 -9.9170635758211623e-01  6.6900446036016499e+00 0.0000000000000000e+00 -9.6861175717715597e-01  6.5971505872567713e+00 0.0000000000000000e+00 -9.4007863519481238e-01  6.5041901381961731e+00 0.0000000000000000e+00 -9.1626410273494241e-01  6.4134417453645467e+00 0.0000000000000000e+00 -8.9216680997973663e-01  6.3214524116528530e+00 0.0000000000000000e+00 -8.6478567701143139e-01  6.2284826513699016e+00 0.0000000000000000e+00 -8.3298696188170906e-01  6.1349168916795849e+00 0.0000000000000000e+00 -8.1121647887190595e-01  6.0413102574678703e+00 0.0000000000000000e+00 -7.8159383018101880e-01  5.9497991209796419e+00 0.0000000000000000e+00 -7.6303710281096870e-01  5.8567834382629007e+00 0.0000000000000000e+00 -7.3628277711171930e-01  5.7621442918666546e+00 0.0000000000000000e+00 -7.1025218283556224e-01  5.6691036999359392e+00 0.0000000000000000e+00 -6.8991500300801123e-01  5.5773247847619576e+00 0.0000000000000000e+00 -6.6365643464996482e-01  5.4861196332073803e+00 0.0000000000000000e+00 -6.4611640616521193e-01  5.3949923842673106e+00 0.0000000000000000e+00 -6.2134493121201473e-01  5.3013632839362659e+00 0.0000000000000000e+00 -5.9676874381809675e-01  5.2105532308146794e+00 0.0000000000000000e+00 -5.8169239175122378e-01  5.1187606874289946e+00 0.0000000000000000e+00 -5.6054846712160056e-01  5.0253782805542162e+00 0.0000000000000000e+00 -5.3478627844608495e-01  4.9327952783464282e+00 0.0000000000000000e+00 -5.1889698326966394e-01  4.8393454815855543e+00 0.0000000000000000e+00 -4.9787337200865117e-01  4.7451894313293792e+00 0.0000000000000000e+00 -4.8217709851669405e-01  4.6531596042158156e+00 0.0000000000000000e+00 -4.6327931040234083e-01  4.5604575214433192e+00 0.0000000000000000e+00 -4.4686558357809292e-01  4.4669989458697517e+00 0.0000000000000000e+00 -4.2492423744017604e-01  4.37514251635