<?xml version="1.0"?>
<VTKFile type="UnstructuredGrid"  version="0.1"  >
<UnstructuredGrid>
<Piece  NumberOfPoints="3069" NumberOfCells="12882">
<Points>
<DataArray  type="Float64"  NumberOfComponents="3"  format="ascii">0 0 0  0 0 4  0 5.65685415 0  50 0 4  50 5.65685415 0  50 0 0  0 0 1  0 0 2  0 0 3  0 1.04967844 3.90746784  0 2.0669806 3.632725  0 3.02052855 3.18424606  0 3.88091111 2.5758636  0 4.62159061 1.82634306  0 5.21972132 0.958802283  0 4.71404505 0  0 3.77123618 0  0 2.82842708 0  0 1.88561809 0  0 0.942809045 0  0.5 0 4  1 0 4  1.5 0 4  2 0 4  2.5 0 4  3 0 4  3.5 0 4  4 0 4  4.5 0 4  5 0 4  5.5 0 4  6 0 4  6.5 0 4  7 0 4  7.5 0 4  8 0 4  8.5 0 4  9 0 4  9.5 0 4  10 0 4  10.5 0 4  11 0 4  11.5 0 4  12 0 4  12.5 0 4  13 0 4  13.5 0 4  14 0 4  14.5 0 4  15 0 4  15.5 0 4  16 0 4  16.5 0 4  17 0 4  17.5 0 4  18 0 4  18.5 0 4  19 0 4  19.5 0 4  20 0 4  20.5 0 4  21 0 4  21.5 0 4  22 0 4  22.5 0 4  23 0 4  23.5 0 4  24 0 4  24.5 0 4  25 0 4  25.5 0 4  26 0 4  26.5 0 4  27 0 4  27.5 0 4  28 0 4  28.5 0 4  29 0 4  29.5 0 4  30 0 4  30.5 0 4  31 0 4  31.5 0 4  32 0 4  32.5 0 4  33 0 4  33.5 0 4  34 0 4  34.5 0 4  35 0 4  35.5 0 4  36 0 4  36.5 0 4  37 0 4  37.5 0 4  38 0 4  38.5 0 4  39 0 4  39.5 0 4  40 0 4  40.5 0 4  41 0 4  41.5 0 4  42 0 4  42.5 0 4  43 0 4  43.5 0 4  44 0 4  44.5 0 4  45 0 4  45.5 0 4  46 0 4  46.5 0 4  47 0 4  47.5 0 4  48 0 4  48.5 0 4  49 0 4  49.5 0 4  50 1.04967844 3.90746784  50 2.0669806 3.632725  50 3.02052855 3.18424606  50 3.88091111 2.5758636  50 4.62159061 1.82634306  50 5.21972132 0.958802283  49.5 5.65685415 0  49 5.65685415 0  48.5 5.65685415 0  48 5.65685415 0  47.5 5.65685415 0  47 5.65685415 0  46.5 5.65685415 0  46 5.65685415 0  45.5 5.65685415 0  45 5.65685415 0  44.5 5.65685415 0  44 5.65685415 0  43.5 5.65685415 0  43 5.65685415 0  42.5 5.65685415 0  42 5.65685415 0  41.5 5.65685415 0  41 5.65685415 0  40.5 5.65685415 0  40 5.65685415 0  39.5 5.65685415 0  39 5.65685415 0  38.5 5.65685415 0  38 5.65685415 0  37.5 5.65685415 0  37 5.65685415 0  36.5 5.65685415 0  36 5.65685415 0  35.5 5.65685415 0  35 5.65685415 0  34.5 5.65685415 0  34 5.65685415 0  33.5 5.65685415 0  33 5.65685415 0  32.5 5.65685415 0  32 5.65685415 0  31.5 5.65685415 0  31 5.65685415 0  30.5 5.65685415 0  30 5.65685415 0  29.5 5.65685415 0  29 5.65685415 0  28.5 5.65685415 0  28 5.65685415 0  27.5 5.65685415 0  27 5.65685415 0  26.5 5.65685415 0  26 5.65685415 0  25.5 5.65685415 0  25 5.65685415 0  24.5 5.65685415 0  24 5.65685415 0  23.5 5.65685415 0  23 5.65685415 0  22.5 5.65685415 0  22 5.65685415 0  21.5 5.65685415 0  21 5.65685415 0  20.5 5.65685415 0  20 5.65685415 0  19.5 5.65685415 0  19 5.65685415 0  18.5 5.65685415 0  18 5.65685415 0  17.5 5.65685415 0  17 5.65685415 0  16.5 5.65685415 0  16 5.65685415 0  15.5 5.65685415 0  15 5.65685415 0  14.5 5.65685415 0  14 5.65685415 0  13.5 5.65685415 0  13 5.65685415 0  12.5 5.65685415 0  12 5.65685415 0  11.5 5.65685415 0  11 5.65685415 0  10.5 5.65685415 0  10 5.65685415 0  9.5 5.65685415 0  9 5.65685415 0  8.5 5.65685415 0  8 5.65685415 0  7.5 5.65685415 0  7 5.65685415 0  6.5 5.65685415 0  6 5.65685415 0  5.5 5.65685415 0  5 5.65685415 0  4.5 5.65685415 0  4 5.65685415 0  3.5 5.65685415 0  3 5.65685415 0  2.5 5.65685415 0  2 5.65685415 0  1.5 5.65685415 0  1 5.65685415 0  0.5 5.65685415 0  50 4.71404505 0  50 3.77123618 0  50 2.82842708 0  50 1.88561809 0  50 0.942809045 0  49.5 0 0  49 0 0  48.5 0 0  48 0 0  47.5 0 0  47 0 0  46.5 0 0  46 0 0  45.5 0 0  45 0 0  44.5 0 0  44 0 0  43.5 0 0  43 0 0  42.5 0 0  42 0 0  41.5 0 0  41 0 0  40.5 0 0  40 0 0  39.5 0 0  39 0 0  38.5 0 0  38 0 0  37.5 0 0  37 0 0  36.5 0 0  36 0 0  35.5 0 0  35 0 0  34.5 0 0  34 0 0  33.5 0 0  33 0 0  32.5 0 0  32 0 0  31.5 0 0  31 0 0  30.5 0 0  30 0 0  29.5 0 0  29 0 0  28.5 0 0  28 0 0  27.5 0 0  27 0 0  26.5 0 0  26 0 0  25.5 0 0  25 0 0  24.5 0 0  24 0 0  23.5 0 0  23 0 0  22.5 0 0  22 0 0  21.5 0 0  21 0 0  20.5 0 0  20 0 0  19.5 0 0  19 0 0  18.5 0 0  18 0 0  17.5 0 0  17 0 0  16.5 0 0  16 0 0  15.5 0 0  15 0 0  14.5 0 0  14 0 0  13.5 0 0  13 0 0  12.5 0 0  12 0 0  11.5 0 0  11 0 0  10.5 0 0  10 0 0  9.5 0 0  9 0 0  8.5 0 0  8 0 0  7.5 0 0  7 0 0  6.5 0 0  6 0 0  5.5 0 0  5 0 0  4.5 0 0  4 0 0  3.5 0 0  3 0 0  2.5 0 0  2 0 0  1.5 0 0  1 0 0  0.5 0 0  50 0 1  50 0 2  50 0 3  0 2.33524275 0.893602192  0 2.87561393 1.93323028  0 4.2367816 0.876864135  0 2.00050235 2.65534091  0 0.981494486 2.34323239  0 3.78543234 1.61830366  0 3.30545568 0.887000024  0 0.812916458 1.58408713  0 1.71948838 1.71268857  0 1.28267908 0.8650629520000001  0 1.21973121 3.10775328  0.5 5.21972132 0.958802223  0.5 4.62159061 1.82634306  0.5 3.88091111 2.5758636  0.5 3.02052855 3.18424606  0.5 2.0669806 3.632725  0.5 1.04967844 3.90746784  1 5.21972132 0.958802223  1 4.62159061 1.82634306  1 3.88091111 2.5758636  1 3.02052855 3.18424606  1 2.0669806 3.632725  1 1.04967844 3.90746784  1.5 5.21972132 0.958802223  1.5 4.62159061 1.82634306  1.5 3.88091111 2.5758636  1.5 3.02052855 3.18424606  1.5 2.0669806 3.632725  1.5 1.04967844 3.90746784  2 5.21972132 0.958802223  2 4.62159061 1.82634306  2 3.88091111 2.5758636  2 3.02052855 3.18424606  2 2.0669806 3.632725  2 1.04967844 3.90746784  2.5 5.21972132 0.958802223  2.5 4.62159061 1.82634306  2.5 3.88091111 2.5758636  2.5 3.02052855 3.18424606  2.5 2.0669806 3.632725  2.5 1.04967844 3.90746784  3 5.21972132 0.958802223  3 4.62159061 1.82634306  3 3.88091111 2.5758636  3 3.02052855 3.18424606  3 2.0669806 3.632725  3 1.04967844 3.90746784  3.5 5.21972132 0.958802223  3.5 4.62159061 1.82634306  3.5 3.88091111 2.5758636  3.5 3.02052855 3.18424606  3.5 2.0669806 3.632725  3.5 1.04967844 3.90746784  4 5.21972132 0.958802223  4 4.62159061 1.82634306  4 3.88091111 2.5758636  4 3.02052855 3.18424606  4 2.0669806 3.632725  4 1.04967844 3.90746784  4.5 5.21972132 0.958802223  4.5 4.62159061 1.82634306  4.5 3.88091111 2.5758636  4.5 3.02052855 3.18424606  4.5 2.0669806 3.632725  4.5 1.04967844 3.90746784  5 5.21972132 0.958802223  5 4.62159061 1.82634306  5 3.88091111 2.5758636  5 3.02052855 3.18424606  5 2.0669806 3.632725  5 1.04967844 3.90746784  5.5 5.21972132 0.958802223  5.5 4.62159061 1.82634306  5.5 3.88091111 2.5758636  5.5 3.02052855 3.18424606  5.5 2.0669806 3.632725  5.5 1.04967844 3.90746784  6 5.21972132 0.958802223  6 4.62159061 1.82634306  6 3.88091111 2.5758636  6 3.02052855 3.18424606  6 2.0669806 3.632725  6 1.04967844 3.90746784  6.5 5.21972132 0.958802223  6.5 4.62159061 1.82634306  6.5 3.88091111 2.5758636  6.5 3.02052855 3.18424606  6.5 2.0669806 3.632725  6.5 1.04967844 3.90746784  7 5.21972132 0.958802223  7 4.62159061 1.82634306  7 3.88091111 2.5758636  7 3.02052855 3.18424606  7 2.0669806 3.632725  7 1.04967844 3.90746784  7.5 5.21972132 0.958802223  7.5 4.62159061 1.82634306  7.5 3.88091111 2.5758636  7.5 3.02052855 3.18424606  7.5 2.0669806 3.632725  7.5 1.04967844 3.90746784  8 5.21972132 0.958802223  8 4.62159061 1.82634306  8 3.88091111 2.5758636  8 3.02052855 3.18424606  8 2.0669806 3.632725  8 1.04967844 3.90746784  8.5 5.21972132 0.958802223  8.5 4.62159061 1.82634306  8.5 3.88091111 2.5758636  8.5 3.02052855 3.18424606  8.5 2.0669806 3.632725  8.5 1.04967844 3.90746784  9 5.21972132 0.958802223  9 4.62159061 1.82634306  9 3.88091111 2.5758636  9 3.02052855 3.18424606  9 2.0669806 3.632725  9 1.04967844 3.90746784  9.5 5.21972132 0.958802223  9.5 4.62159061 1.82634306  9.5 3.88091111 2.5758636  9.5 3.02052855 3.18424606  9.5 2.0669806 3.632725  9.5 1.04967844 3.90746784  10 5.21972132 0.958802223  10 4.62159061 1.82634306  10 3.88091111 2.5758636  10 3.02052855 3.18424606  10 2.0669806 3.632725  10 1.04967844 3.90746784  10.5 5.21972132 0.958802223  10.5 4.62159061 1.82634306  10.5 3.88091111 2.5758636  10.5 3.02052855 3.18424606  10.5 2.0669806 3.632725  10.5 1.04967844 3.90746784  11 5.21972132 0.958802223  11 4.62159061 1.82634306  11 3.88091111 2.5758636  11 3.02052855 3.18424606  11 2.0669806 3.632725  11 1.04967844 3.90746784  11.5 5.21972132 0.958802223  11.5 4.62159061 1.82634306  11.5 3.88091111 2.5758636  11.5 3.02052855 3.18424606  11.5 2.0669806 3.632725  11.5 1.04967844 3.90746784  12 5.21972132 0.958802223  12 4.62159061 1.82634306  12 3.88091111 2.5758636  12 3.02052855 3.18424606  12 2.0669806 3.632725  12 1.04967844 3.90746784  12.5 5.21972132 0.958802223  12.5 4.62159061 1.82634306  12.5 3.88091111 2.5758636  12.5 3.02052855 3.18424606  12.5 2.0669806 3.632725  12.5 1.04967844 3.90746784  13 5.21972132 0.958802223  13 4.62159061 1.82634306  13 3.88091111 2.5758636  13 3.02052855 3.18424606  13 2.0669806 3.632725  13 1.04967844 3.90746784  13.5 5.21972132 0.958802223  13.5 4.62159061 1.82634306  13.5 3.88091111 2.5758636  13.5 3.02052855 3.18424606  13.5 2.0669806 3.632725  13.5 1.04967844 3.90746784  14 5.21972132 0.958802223  14 4.62159061 1.82634306  14 3.88091111 2.5758636  14 3.02052855 3.18424606  14 2.0669806 3.632725  14 1.04967844 3.90746784  14.5 5.21972132 0.958802223  14.5 4.62159061 1.82634306  14.5 3.88091111 2.5758636  14.5 3.02052855 3.18424606  14.5 2.0669806 3.632725  14.5 1.04967844 3.90746784  15 5.21972132 0.958802223  15 4.62159061 1.82634306  15 3.88091111 2.5758636  15 3.02052855 3.18424606  15 2.0669806 3.632725  15 1.04967844 3.90746784  15.5 5.21972132 0.958802223  15.5 4.62159061 1.82634306  15.5 3.88091111 2.5758636  15.5 3.02052855 3.18424606  15.5 2.0669806 3.632725  15.5 1.04967844 3.90746784  16 5.21972132 0.958802223  16 4.62159061 1.82634306  16 3.88091111 2.5758636  16 3.02052855 3.18424606  16 2.0669806 3.632725  16 1.04967844 3.90746784  16.5 5.21972132 0.958802223  16.5 4.62159061 1.82634306  16.5 3.88091111 2.5758636  16.5 3.02052855 3.18424606  16.5 2.0669806 3.632725  16.5 1.04967844 3.90746784  17 5.21972132 0.958802223  17 4.62159061 1.82634306  17 3.88091111 2.5758636  17 3.02052855 3.18424606  17 2.0669806 3.632725  17 1.04967844 3.90746784  17.5 5.21972132 0.958802223  17.5 4.62159061 1.82634306  17.5 3.88091111 2.5758636  17.5 3.02052855 3.18424606  17.
[...]
<PointData  Vectors="f_261141-0"> 
<DataArray  type="Float64"  Name="f_261141-0"  NumberOfComponents="3" format="ascii">0.0000000000000000e+00 0.0000000000000000e+00 0.0000000000000000e+00  0.0000000000000000e+00 0.0000000000000000e+00 4.4120320701631154e-02  0.0000000000000000e+00 1.3724705961090133e-01 0.0000000000000000e+00  6.0501470937416790e-01 0.0000000000000000e+00 2.3620758614547901e+00  1.0573719594457627e+00 1.0223413905137443e-01 2.4173291475599745e+00  1.0152084727185866e+00 0.0000000000000000e+00 2.3600415021915246e+00  0.0000000000000000e+00 0.0000000000000000e+00 3.1537473043853750e-02  0.0000000000000000e+00 0.0000000000000000e+00 2.9122041557561585e-02  0.0000000000000000e+00 0.0000000000000000e+00 2.0920470197388099e-02  0.0000000000000000e+00 -4.8901271917116936e-03 4.6335142037530384e-02  0.0000000000000000e+00 1.6772647802764429e-02 6.9448056234251099e-02  0.0000000000000000e+00 3.9399576072309504e-02 6.8013447972442867e-02  0.0000000000000000e+00 6.3286472160142798e-02 6.1506887631354819e-02  0.0000000000000000e+00 8.3594668451161827e-02 5.7888858993445459e-02  0.0000000000000000e+00 1.0869607797856964e-01 3.2018558072793066e-02  0.0000000000000000e+00 9.8978426341708017e-02 0.0000000000000000e+00  0.0000000000000000e+00 7.3198002220143832e-02 0.0000000000000000e+00  0.0000000000000000e+00 4.8759908382505115e-02 0.0000000000000000e+00  0.0000000000000000e+00 2.9141176845515385e-02 0.0000000000000000e+00  0.0000000000000000e+00 1.3489883011691815e-02 0.0000000000000000e+00  8.4375974283026449e-03 0.0000000000000000e+00 4.4469541191580836e-02  1.4365283024218427e-02 0.0000000000000000e+00 4.1562065019299134e-02  2.0532263776597535e-02 0.0000000000000000e+00 4.1886851700651269e-02  2.7743094391694444e-02 0.0000000000000000e+00 4.3201502585434579e-02  3.6736089709346303e-02 0.0000000000000000e+00 4.3190447969671752e-02  4.2068538436809085e-02 0.0000000000000000e+00 4.7116892845011464e-02  5.0139656008676883e-02 0.0000000000000000e+00 4.9972433383434073e-02  5.5460055008540010e-02 0.0000000000000000e+00 5.4740456752626294e-02  6.2447328597498984e-02 0.0000000000000000e+00 6.1631746994560421e-02  6.9022739178735540e-02 0.0000000000000000e+00 7.1702533081531059e-02  7.7206920091052719e-02 0.0000000000000000e+00 7.6484267661966435e-02  8.5796427468283601e-02 0.0000000000000000e+00 7.5882170462789819e-02  9.2263884334103444e-02 0.0000000000000000e+00 8.3763488378999648e-02  9.6330072163628447e-02 0.0000000000000000e+00 9.2415564973190326e-02  1.0767246480933826e-01 0.0000000000000000e+00 9.6627528209511052e-02  1.1211057243654682e-01 0.0000000000000000e+00 1.0622665124087183e-01  1.1943524778859391e-01 0.0000000000000000e+00 1.1590866293467463e-01  1.2673815203861596e-01 0.0000000000000000e+00 1.2563252031363964e-01  1.3441660967684310e-01 0.0000000000000000e+00 1.3103068667090140e-01  1.4197810901998745e-01 0.0000000000000000e+00 1.3878110721157857e-01  1.4895272547498609e-01 0.0000000000000000e+00 1.4458176689846577e-01  1.5824304788306667e-01 0.0000000000000000e+00 1.5743798620653093e-01  1.6467059442485846e-01 0.0000000000000000e+00 1.6487667446851939e-01  1.7167687391732342e-01 0.0000000000000000e+00 1.7660545192490593e-01  1.8003313256552514e-01 0.0000000000000000e+00 1.8773668493581627e-01  1.8605839110679631e-01 0.0000000000000000e+00 2.0127129748990863e-01  1.9102427503810218e-01 0.0000000000000000e+00 2.1766611007219122e-01  1.9937963825304511e-01 0.0000000000000000e+00 2.2512059715525623e-01  2.0518602522368126e-01 0.0000000000000000e+00 2.4048081547071118e-01  2.1018433348302787e-01 0.0000000000000000e+00 2.5625139829727195e-01  2.2164959861532046e-01 0.0000000000000000e+00 2.6145433458399819e-01  2.2976215825233282e-01 0.0000000000000000e+00 2.7819325567995462e-01  2.3524351774556870e-01 0.0000000000000000e+00 2.9597584998498699e-01  2.4290833832998512e-01 0.0000000000000000e+00 3.1134750519388671e-01  2.5072153795525842e-01 0.0000000000000000e+00 3.2969502158289826e-01  2.5884275300785986e-01 0.0000000000000000e+00 3.4254212180476123e-01  2.6408573060516222e-01 0.0000000000000000e+00 3.6333894910116499e-01  2.7183576105031909e-01 0.0000000000000000e+00 3.7591881261233590e-01  2.7819129120071073e-01 0.0000000000000000e+00 3.9767438513854930e-01  2.8502454723662063e-01 0.0000000000000000e+00 4.1264135613449815e-01  2.9368524880455738e-01 0.0000000000000000e+00 4.2848840170571922e-01  2.9743688828552173e-01 0.0000000000000000e+00 4.4591649473302486e-01  3.0514293146554922e-01 0.0000000000000000e+00 4.6411800149747290e-01  3.0912710286278883e-01 0.0000000000000000e+00 4.8974988220482607e-01  3.1872662934825030e-01 0.0000000000000000e+00 5.0495976597209458e-01  3.2503860926666328e-01 0.0000000000000000e+00 5.2638185073785781e-01  3.3152027212624852e-01 0.0000000000000000e+00 5.4464286343342405e-01  3.3648323145205006e-01 0.0000000000000000e+00 5.6812802614159985e-01  3.4397556535166196e-01 0.0000000000000000e+00 5.8974196252305500e-01  3.4922778847760838e-01 0.0000000000000000e+00 6.1480009138533842e-01  3.5606919513064639e-01 0.0000000000000000e+00 6.4068581154654614e-01  3.6323305978724241e-01 0.0000000000000000e+00 6.6272854694928829e-01  3.6900062129689387e-01 0.0000000000000000e+00 6.9162932222635998e-01  3.7617478145581118e-01 0.0000000000000000e+00 7.1476125113638378e-01  3.8396297625655879e-01 0.0000000000000000e+00 7.3745111374083760e-01  3.8770095839587926e-01 0.0000000000000000e+00 7.6067944295135925e-01  3.9573295701655331e-01 0.0000000000000000e+00 7.8738730857085004e-01  4.0221514291426119e-01 0.0000000000000000e+00 8.1585715615055066e-01  4.0782176063287412e-01 0.0000000000000000e+00 8.4308658425836769e-01  4.1187483197597197e-01 0.0000000000000000e+00 8.7212833271684975e-01  4.1796652069508594e-01 0.0000000000000000e+00 9.0187777361724564e-01  4.2512907650498943e-01 0.0000000000000000e+00 9.2933716965810653e-01  4.3190231601357060e-01 0.0000000000000000e+00 9.5691970156016115e-01  4.3961698402609906e-01 0.0000000000000000e+00 9.8833981385931713e-01  4.4437876343644200e-01 0.0000000000000000e+00 1.0193137776267021e+00  4.4934628425256273e-01 0.0000000000000000e+00 1.0496961320870797e+00  4.5626831509036098e-01 0.0000000000000000e+00 1.0795531694669691e+00  4.6428852775455060e-01 0.0000000000000000e+00 1.1116381433147671e+00  4.6900934583218490e-01 0.0000000000000000e+00 1.1431101038370983e+00  4.7509317873165718e-01 0.0000000000000000e+00 1.1792655107952263e+00  4.8063630409853786e-01 0.0000000000000000e+00 1.2112590916095356e+00  4.8741508815099283e-01 0.0000000000000000e+00 1.2443827767040705e+00  4.9141483331926472e-01 0.0000000000000000e+00 1.2837476353790260e+00  4.9831610983713714e-01 0.0000000000000000e+00 1.3172773046495465e+00  5.0456076238930359e-01 0.0000000000000000e+00 1.3505882278292438e+00  5.1235886076950721e-01 0.0000000000000000e+00 1.3865515046831707e+00  5.1692949203589000e-01 0.0000000000000000e+00 1.4234989751945533e+00  5.2335598443984721e-01 0.0000000000000000e+00 1.4578895644591936e+00  5.2706325353785421e-01 0.0000000000000000e+00 1.4976846933512022e+00  5.3212442586427744e-01 0.0000000000000000e+00 1.5363896924991571e+00  5.3930053822142410e-01 0.0000000000000000e+00 1.5758718180192368e+00  5.4343262164095696e-01 0.0000000000000000e+00 1.6144653525439059e+00  5.4904244626393328e-01 0.0000000000000000e+00 1.6552312096354600e+00  5.5591696826066905e-01 0.0000000000000000e+00 1.6937327199910646e+00  5.6064222622078286e-01 0.0000000000000000e+00 1.7303522946192909e+00  5.6520719412846054e-01 0.0000000000000000e+00 1.7719536912735059e+00  5.7156652011077302e-01 0.0000000000000000e+00 1.8104303542578268e+00  5.7721625367669893e-01 0.0000000000000000e+00 1.8518597985615195e+00  5.8309072473367318e-01 0.0000000000000000e+00 1.8914319876155250e+00  5.8785114440454689e-01 0.0000000000000000e+00 1.9343911740813227e+00  5.9036681343766817e-01 0.0000000000000000e+00 1.9778505130178807e+00  5.9404232543273938e-01 0.0000000000000000e+00 2.0231140824673925e+00  5.9919775271811127e-01 0.0000000000000000e+00 2.0648945109229047e+00  6.0417213470883258e-01 0.0000000000000000e+00 2.1051436442786287e+00  6.0901697339819716e-01 0.0000000000000000e+00 2.1430335424729137e+00  6.0946508702990865e-01 0.0000000000000000e+00 2.1843080678349991e+00  6.0955164665048578e-01 0.0000000000000000e+00 2.2252825268910041e+00  6.0863337383528326e-01 0.0000000000000000e+00 2.2687328348442128e+00  6.0617607346135549e-01 0.0000000000000000e+00 2.3132584745119620e+00  6.2396461009955895e-01 -4.1053761204864056e-03 2.3610450857551517e+00  6.5691535080638441e-01 -4.8362423714399432e-03 2.3680699668279970e+00  7.0274016384681492e-01 -1.9337653800058665e-03 2.3804696963387322e+00  7.6782518939593492e-01 6.8774559222927693e-03 2.3946367093859022e+00  8.4476813607364010e-01 2.5655362743235606e-02 2.4132679417133724e+00  9.4725234474648690e-01 5.4059100228573291e-02 2.4241763541372601e+00  1.0467041048989922e+00 1.0806512754559200e-01 2.3640018790531681e+00  1.0354238380331333e+00 1.1307961444606929e-01 2.3098239157708558e+00  1.0245074375847489e+00 1.1959508964538673e-01 2.2564870359683153e+00  1.0154418282842634e+00 1.2466176755136318e-01 2.2020922806434191e+00  1.0039522250338477e+00 1.3031319289294466e-01 2.1509066949779219e+00  9.9107717905695925e-01 1.3272409556002021e-01 2.1013531158604706e+00  9.7782203174914695e-01 1.3543763678563134e-01 2.0528334475258845e+00  9.6562599630068002e-01 1.3618115919256885e-01 2.0049661493669082e+00  9.5367206776217717e-01 1.3668894480133298e-01 1.9578363668209224e+00  9.4180380088831439e-01 1.3734655048718664e-01 1.9116757411964325e+00  9.3058212754667557e-01 1.3778402340479828e-01 1.8657856329067219e+00  9.1927441318901326e-01 1.3489292690393664e-01 1.8227754304991526e+00  9.0860003450767857e-01 1.3456772688908653e-01 1.7782048218627375e+00  8.9810259043257401e-01 1.3347030402735696e-01 1.7352660149269359e+00  8.8719492266834821e-01 1.3267619757397048e-01 1.6955646852523152e+00  8.7895253842039511e-01 1.3401558193854979e-01 1.6549735974274988e+00  8.6822133112469602e-01 1.3376885095361371e-01 1.6116578809380935e+00  8.5842301390093445e-01 1.3093992890508352e-01 1.5710397769239763e+00  8.4752093712886845e-01 1.2981074473552046e-01 1.5316019223678830e+00  8.3686175909821259e-01 1.2910201529640528e-01 1.4918887730201806e+00  8.2717331729696331e-01 1.2769800813938434e-01 1.4527002004316236e+00  8.1855456896463497e-01 1.2899726939834136e-01 1.4113694979994900e+00  8.0940166353862009e-01 1.2761555116642026e-01 1.3742819480389123e+00  7.9928374355504139e-01 1.3079900483906978e-01 1.3364112017024949e+00  7.8902440641862581e-01 1.2957061039853995e-01 1.3009724356940353e+00  7.7940217605357798e-01 1.2870838011008531e-01 1.2652210928365997e+00  7.6985613181196866e-01 1.2825246869505982e-01 1.2301229142949626e+00  7.5996434252324385e-01 1.2882605658329485e-01 1.1958705675692312e+00  7.5043816822673648e-01 1.2670736604754815e-01 1.1619197764041722e+00  7.4046177206270947e-01 1.2748167014458808e-01 1.1279266510989043e+00  7.3096014432087419e-01 1.2829671775062826e-01 1.0944699016939925e+00  7.2135077963563032e-01 1.2667117938003880e-01 1.0631129014406473e+00  7.1137254504717784e-01 1.2809411534912565e-01 1.0311417033483405e+00  7.0172781087065905e-01 1.2863940798602830e-01 1.0000877405354038e+00  6.9162533283396133e-01 1.2933508921939679e-01 9.6941606679866177e-01  6.8182544692229785e-01 1.3047877414022291e-01 9.3914260109091796e-01  6.7115820881398536e-01 1.3089734506791104e-01 9.1020207378045381e-01  6.6096456198577358e-01 1.2997102589843268e-01 8.8055925049133865e-01  6.5126076593808857e-01 1.2815449359777487e-01 8.5209927895573634e-01  6.4038890660704795e-01 1.3076831092199012e-01 8.2407302072721078e-01  6.3004872067197670e-01 1.3217517500175582e-01 7.9554874895290251e-01  6.1944695366470248e-01 1.2939439008510492e-01 7.6850889863060745e-01  6.0852640333914576e-01 1.3229183618604207e-01 7.3907994668561450e-01  5.9780731762116202e-01 1.3086848089326436e-01 7.1157481608449036e-01  5.8757257168316590e-01 1.2916426227430011e-01 6.8504396395175704e-01  5.7723731352047492e-01 1.2984820412563161e-01 6.5769350686945705e-01  5.6640646048749899e-01 1.3036057750616026e-01 6.3154730217860156e-01  5.5613816422989137e-01 1.2817013955839762e-01 6.0674325495142090e-01  5.4569012256183957e-01 1.2897783125785853e-01 5.8146089784503296e-01  5.3547342370105022e-01 1.2777864468107838e-01 5.5690612263760142e-01  5.2462842706300006e-01 1.2763268175992473e-01 5.3361765764004432e-01  5.1452055915770234e-01 1.2621833549878977e-01 5.1182853743673984e-01  5.0426087311927303e-01 1.2778287984828904e-01 4.8866420452474446e-01  4.9347301693521201e-01 1.2740681265798443e-01 4.6842634873607314e-01  4.8295494742763423e-01 1.2715810818581486e-01 4.4890329730380091e-01  4.7250120649030097e-01 1.2727175990512737e-01 4.2777165633367026e-01  4.6269678956887522e-01 1.2717103579789346e-01 4.0666031138214220e-01  4.5216655633141928e-01 1.2725088837772319e-01 3.8727671181764650e-01  4.4120173293873111e-01 1.2782011897204193e-01 3.6863763611903000e-01  4.2973175475338532e-01 1.2860281757351341e-01 3.5089825483720311e-01  4.1945347950129230e-01 1.2652878464152731e-01 3.3345399161799760e-01  4.0826254538055395e-01 1.2698940862654035e-01 3.1729226169881042e-01  3.9780445562413064e-01 1.2748911541034982e-01 2.9964697436106924e-01  3.8656420816342146e-01 1.2773826115682999e-01 2.8378295795955183e-01  3.7615881916841615e-01 1.2757709633984779e-01 2.6767601986285272e-01  3.6585015532271253e-01 1.2982605056661897e-01 2.5113961324746942e-01  3.5473557054767541e-01 1.2828847131020979e-01 2.3904127556423280e-01  3.4426194170239138e-01 1.3019741277126601e-01 2.2460233932342571e-01  3.3305558045764505e-01 1.2918164969708587e-01 2.1112658015446897e-01  3.2211847832220475e-01 1.2960275568512125e-01 1.9701394804802497e-01  3.1181648893218100e-01 1.2908379644670967e-01 1.8279409770185676e-01  3.0149568622807266e-01 1.2910928030176844e-01 1.6973373321927787e-01  2.9092338266789636e-01 1.2838356477955543e-01 1.5778993669050731e-01  2.8051484127704363e-01 1.2873162624352991e-01 1.4510296326772540e-01  2.7008814725323771e-01 1.2798067243004335e-01 1.3337131829680116e-01  2.5941200662905672e-01 1.2938260577184882e-01 1.2106707415302786e-01  2.4830602899532508e-01 1.2924159331634016e-01 1.1064189092011129e-01  2.3666943857546352e-01 1.2908326641168283e-01 1.0034838783984493e-01  2.2618530937030756e-01 1.2890385637444424e-01 9.1138227433622654e-02  2.1593790514781150e-01 1.3029332294004406e-01 8.0168198910158042e-02  2.0516236088434944e-01 1.2870194531016557e-01 7.2179078543690003e-02  1.9464203578700237e-01 1.2801285639232465e-01 6.3502770848781573e-02  1.8367315815560842e-01 1.3078662193757645e-01 5.4088607695177156e-02  1.7281641338325490e-01 1.3026595563727511e-01 4.7980078743793599e-02  1.6130865125771499e-01 1.3071993612072602e-01 4.2884195645901138e-02  1.5058171121252134e-01 1.3100139248002646e-01 3.5896949820345143e-02  1.3983200525216560e-01 1.3179257227241153e-01 2.8501895033498034e-02  1.2882405572871033e-01 1.3014291458373595e-01 2.4797767766121789e-02  1.1837577526048740e-01 1.3106834765473713e-01 1.9441304514503082e-02  1.0782639187178973e-01 1.3053488181387929e-01 1.5353657063162964e-02  9.7299593210700239e-02 1.3221592838054583e-01 1.1369557633323103e-02  8.6722795276642853e-02 1.3249112163574647e-01 8.2590753227795386e-03  7.6025595880728061e-02 1.3289300248450339e-01 5.7975802264131314e-03  6.5847023572869465e-02 1.3306266054141866e-01 2.3094374253705072e-03  5.4913867447369723e-02 1.3492883467942582e-01 -1.6058011124113827e-04  4.4053276837895179e-02 1.3311445779458875e-01 7.2969221668057799e-04  3.3098488200175656e-02 1.3640688143526955e-01 -1.1139171820405560e-04  2.1652741795729645e-02 1.3692177473848580e-01 0.0000000000000000e+00  1.0426242233401991e-02 1.3751056390130942e-01 0.0000000000000000e+00  1.0506686228494793e+00 7.3668155530802776e-02 2.3975133896550997e+00  1.0396205076010672e+00 5.3937141727529260e-02 2.3831926017816585e+00  1.0269809160013808e+00 3.5206829002393719e-02 2.3694585549381264e+00  1.0296283820440764e+00 2.6706923925212678e-02 2.3716932151588179e+00  1.0198689668793706e+00 1.0473220277044552e-02 2.3643734920567820e+00  1.0018617087995720e+00 0.0000000000000000e+00 2.3044392103593796e+00  9.9196135025008714e-01 0.0000000000000000e+00 2.2559754212036123e+00  9.8120947230516975e-01 0.0000000000000000e+00 2.2057551781999716e+00  9.7223211066551640e-01 0.0000000000000000e+00 2.1599813431432797e+00  9.6007618098593606e-01 0.0000000000000000e+00 2.1196595062271868e+00  9.5305643328149825e-01 0.0000000000000000e+00 2.0740342804486396e+00  9.4347069735352385e-01 0.0000000000000000e+00 2.0342789043443998e+00  9.3516812470924593e-01 0.0000000000000000e+00 1.9933660523369578e+00  9.2997236861117183e-01 0.0000000000000000e+00 1.9458711735829135e+00  9.2009507082579145e-01 0.0000000000000000e+00 1.9104852191104473e+00  9.1127489160321107e-01 0.0000000000000000e+00 1.8724587283667755e+00  9.0351262241694597e-01 0.0000000000000000e+00 1.8279258551770075e+00  8.9579801484536736e-01 0.0000000000000000e+00 1.7847459267428998e+00  8.8972743080662420e-01 0.0000000000000000e+00 1.7403939314862507e+00  8.7983108624647077e-01 0.0000000000000000e+00 1.7078215360785614e+00  8.6763473519349987e-01 0.0000000000000000e+00 1.6695571538557870e+00  8.5686012804392975e-01 0.0000000000000000e+00 1.6305896689346246e+00  8.5178050077193534e-01 0.0000000000000000e+00 1.5843218304106259e+00  8.4384950870587960e-01 0.0000000000000000e+00 1.5532092496996444e+00  8.3358022717233560e-01 0.0000000000000000e+00 1.5107318173124036e+00  8.2711641471412178e-01 0.0000000000000000e+00 1.4685084613978003e+00  8.1365781942788939e-01 0.0000000000000000e+00 1.4403196880440574e+00  8.0639511481902693e-01 0.0000000000000000e+00 1.3978456167643838e+00  7.9899345893371554e-01 0.0000000000000000e+00 1.3659443269151645e+00  7.8639520475946056e-01 0.0000000000000000e+00 1.3278749574906907e+00  7.7535476514915436e-01 0.0000000000000000e+00 1.2917133078594423e+00  7.6845036134544742e-01 0.0000000000000000e+00 1.2486929174598649e+00  7.5804892931401779e-01 0.0000000000000000e+00 1.2207900114152146e+00  7.4910411479952488e-01 0.0000000000000000e+00 1.1843352713107442e+00  7.4081050876536625e-01 0.0000000000000000e+00 1.1540491392086054e+00  7.2762809764985981e-01 0.0000000000000000e+00 1.1233826166214278e+00  7.1557954053380501e-01 0.0000000000000000e+00 1.0904717946671740e+00  7.0973030750346144e-01 0.0000000000000000e+00 1.0510669675279012e+00  7.0019594923549500e-01 0.0000000000000000e+00 1.0242632560082221e+00  6.9190618476081356e-01 0.0000000000000000e+00 9.8683496131826576e-01  6.8002559181154953e-01 0.0000000000000000e+00 9.6429332112835664e-01  6.6838897374411843e-01 0.0000000000000000e+00 9.2977507338050425e-01  6.6125396170933493e-01 0.0000000000000000e+00 8.9757098043009731e-01  6.5081213859702536e-01 0.0000000000000000e+00 8.7363762030775771e-01  6.4108738975152146e-01 0.0000000000000000e+00 8.3800029155434319e-01  6.2882778527674010e-01 0.0000000000000000e+00 8.1692430198545807e-01  6.1648361319163270e-01 0.0000000000000000e+00 7.8444162702893427e-01  6.0884843190279592e-01 0.0000000000000000e+00 7.5217650764334132e-01  5.9707790095847912e-01 0.0000000000000000e+00 7.3372691354513042e-01  5.8420420461773470e-01 0.0000000000000000e+00 7.0995088628044667e-01  5.7593719603118554e-01 0.0000000000000000e+00 6.7814189712371686e-01  5.6432037957805403e-01 0.0000000000000000e+00 6.5965061087997023e-01  5.5702879489387658e-01 0.0000000000000000e+00 6.2895479621819961e-01  5.4619932192360288e-01 0.0000000000000000e+00 6.1049298311849476e-01  5.3421268100630881e-01 0.0000000000000000e+00 5.8595274112672591e-01  5.2172981767689963e-01 0.0000000000000000e+00 5.6213514604117332e-01  5.1323298336637924e-01 0.0000000000000000e+00 5.3484022559705324e-01  5.0098977214163687e-01 0.0000000000000000e+00 5.2060603795947014e-01  4.9297623554714870e-01 0.0000000000000000e+00 4.9227351931290148e-01  4.8215488324998096e-01 0.0000000000000000e+00 4.7610174898205337