<?xml version="1.0"?>
<VTKFile type="UnstructuredGrid"  version="0.1"  >
<UnstructuredGrid>
<Piece  NumberOfPoints="3069" NumberOfCells="12882">
<Points>
<DataArray  type="Float64"  NumberOfComponents="3"  format="ascii">0 0 0  0 0 4  0 5.65685415 0  50 0 4  50 5.65685415 0  50 0 0  0 0 1  0 0 2  0 0 3  0 1.04967844 3.90746784  0 2.0669806 3.632725  0 3.02052855 3.18424606  0 3.88091111 2.5758636  0 4.62159061 1.82634306  0 5.21972132 0.958802283  0 4.71404505 0  0 3.77123618 0  0 2.82842708 0  0 1.88561809 0  0 0.942809045 0  0.5 0 4  1 0 4  1.5 0 4  2 0 4  2.5 0 4  3 0 4  3.5 0 4  4 0 4  4.5 0 4  5 0 4  5.5 0 4  6 0 4  6.5 0 4  7 0 4  7.5 0 4  8 0 4  8.5 0 4  9 0 4  9.5 0 4  10 0 4  10.5 0 4  11 0 4  11.5 0 4  12 0 4  12.5 0 4  13 0 4  13.5 0 4  14 0 4  14.5 0 4  15 0 4  15.5 0 4  16 0 4  16.5 0 4  17 0 4  17.5 0 4  18 0 4  18.5 0 4  19 0 4  19.5 0 4  20 0 4  20.5 0 4  21 0 4  21.5 0 4  22 0 4  22.5 0 4  23 0 4  23.5 0 4  24 0 4  24.5 0 4  25 0 4  25.5 0 4  26 0 4  26.5 0 4  27 0 4  27.5 0 4  28 0 4  28.5 0 4  29 0 4  29.5 0 4  30 0 4  30.5 0 4  31 0 4  31.5 0 4  32 0 4  32.5 0 4  33 0 4  33.5 0 4  34 0 4  34.5 0 4  35 0 4  35.5 0 4  36 0 4  36.5 0 4  37 0 4  37.5 0 4  38 0 4  38.5 0 4  39 0 4  39.5 0 4  40 0 4  40.5 0 4  41 0 4  41.5 0 4  42 0 4  42.5 0 4  43 0 4  43.5 0 4  44 0 4  44.5 0 4  45 0 4  45.5 0 4  46 0 4  46.5 0 4  47 0 4  47.5 0 4  48 0 4  48.5 0 4  49 0 4  49.5 0 4  50 1.04967844 3.90746784  50 2.0669806 3.632725  50 3.02052855 3.18424606  50 3.88091111 2.5758636  50 4.62159061 1.82634306  50 5.21972132 0.958802283  49.5 5.65685415 0  49 5.65685415 0  48.5 5.65685415 0  48 5.65685415 0  47.5 5.65685415 0  47 5.65685415 0  46.5 5.65685415 0  46 5.65685415 0  45.5 5.65685415 0  45 5.65685415 0  44.5 5.65685415 0  44 5.65685415 0  43.5 5.65685415 0  43 5.65685415 0  42.5 5.65685415 0  42 5.65685415 0  41.5 5.65685415 0  41 5.65685415 0  40.5 5.65685415 0  40 5.65685415 0  39.5 5.65685415 0  39 5.65685415 0  38.5 5.65685415 0  38 5.65685415 0  37.5 5.65685415 0  37 5.65685415 0  36.5 5.65685415 0  36 5.65685415 0  35.5 5.65685415 0  35 5.65685415 0  34.5 5.65685415 0  34 5.65685415 0  33.5 5.65685415 0  33 5.65685415 0  32.5 5.65685415 0  32 5.65685415 0  31.5 5.65685415 0  31 5.65685415 0  30.5 5.65685415 0  30 5.65685415 0  29.5 5.65685415 0  29 5.65685415 0  28.5 5.65685415 0  28 5.65685415 0  27.5 5.65685415 0  27 5.65685415 0  26.5 5.65685415 0  26 5.65685415 0  25.5 5.65685415 0  25 5.65685415 0  24.5 5.65685415 0  24 5.65685415 0  23.5 5.65685415 0  23 5.65685415 0  22.5 5.65685415 0  22 5.65685415 0  21.5 5.65685415 0  21 5.65685415 0  20.5 5.65685415 0  20 5.65685415 0  19.5 5.65685415 0  19 5.65685415 0  18.5 5.65685415 0  18 5.65685415 0  17.5 5.65685415 0  17 5.65685415 0  16.5 5.65685415 0  16 5.65685415 0  15.5 5.65685415 0  15 5.65685415 0  14.5 5.65685415 0  14 5.65685415 0  13.5 5.65685415 0  13 5.65685415 0  12.5 5.65685415 0  12 5.65685415 0  11.5 5.65685415 0  11 5.65685415 0  10.5 5.65685415 0  10 5.65685415 0  9.5 5.65685415 0  9 5.65685415 0  8.5 5.65685415 0  8 5.65685415 0  7.5 5.65685415 0  7 5.65685415 0  6.5 5.65685415 0  6 5.65685415 0  5.5 5.65685415 0  5 5.65685415 0  4.5 5.65685415 0  4 5.65685415 0  3.5 5.65685415 0  3 5.65685415 0  2.5 5.65685415 0  2 5.65685415 0  1.5 5.65685415 0  1 5.65685415 0  0.5 5.65685415 0  50 4.71404505 0  50 3.77123618 0  50 2.82842708 0  50 1.88561809 0  50 0.942809045 0  49.5 0 0  49 0 0  48.5 0 0  48 0 0  47.5 0 0  47 0 0  46.5 0 0  46 0 0  45.5 0 0  45 0 0  44.5 0 0  44 0 0  43.5 0 0  43 0 0  42.5 0 0  42 0 0  41.5 0 0  41 0 0  40.5 0 0  40 0 0  39.5 0 0  39 0 0  38.5 0 0  38 0 0  37.5 0 0  37 0 0  36.5 0 0  36 0 0  35.5 0 0  35 0 0  34.5 0 0  34 0 0  33.5 0 0  33 0 0  32.5 0 0  32 0 0  31.5 0 0  31 0 0  30.5 0 0  30 0 0  29.5 0 0  29 0 0  28.5 0 0  28 0 0  27.5 0 0  27 0 0  26.5 0 0  26 0 0  25.5 0 0  25 0 0  24.5 0 0  24 0 0  23.5 0 0  23 0 0  22.5 0 0  22 0 0  21.5 0 0  21 0 0  20.5 0 0  20 0 0  19.5 0 0  19 0 0  18.5 0 0  18 0 0  17.5 0 0  17 0 0  16.5 0 0  16 0 0  15.5 0 0  15 0 0  14.5 0 0  14 0 0  13.5 0 0  13 0 0  12.5 0 0  12 0 0  11.5 0 0  11 0 0  10.5 0 0  10 0 0  9.5 0 0  9 0 0  8.5 0 0  8 0 0  7.5 0 0  7 0 0  6.5 0 0  6 0 0  5.5 0 0  5 0 0  4.5 0 0  4 0 0  3.5 0 0  3 0 0  2.5 0 0  2 0 0  1.5 0 0  1 0 0  0.5 0 0  50 0 1  50 0 2  50 0 3  0 2.33524275 0.893602192  0 2.87561393 1.93323028  0 4.2367816 0.876864135  0 2.00050235 2.65534091  0 0.981494486 2.34323239  0 3.78543234 1.61830366  0 3.30545568 0.887000024  0 0.812916458 1.58408713  0 1.71948838 1.71268857  0 1.28267908 0.8650629520000001  0 1.21973121 3.10775328  0.5 5.21972132 0.958802223  0.5 4.62159061 1.82634306  0.5 3.88091111 2.5758636  0.5 3.02052855 3.18424606  0.5 2.0669806 3.632725  0.5 1.04967844 3.90746784  1 5.21972132 0.958802223  1 4.62159061 1.82634306  1 3.88091111 2.5758636  1 3.02052855 3.18424606  1 2.0669806 3.632725  1 1.04967844 3.90746784  1.5 5.21972132 0.958802223  1.5 4.62159061 1.82634306  1.5 3.88091111 2.5758636  1.5 3.02052855 3.18424606  1.5 2.0669806 3.632725  1.5 1.04967844 3.90746784  2 5.21972132 0.958802223  2 4.62159061 1.82634306  2 3.88091111 2.5758636  2 3.02052855 3.18424606  2 2.0669806 3.632725  2 1.04967844 3.90746784  2.5 5.21972132 0.958802223  2.5 4.62159061 1.82634306  2.5 3.88091111 2.5758636  2.5 3.02052855 3.18424606  2.5 2.0669806 3.632725  2.5 1.04967844 3.90746784  3 5.21972132 0.958802223  3 4.62159061 1.82634306  3 3.88091111 2.5758636  3 3.02052855 3.18424606  3 2.0669806 3.632725  3 1.04967844 3.90746784  3.5 5.21972132 0.958802223  3.5 4.62159061 1.82634306  3.5 3.88091111 2.5758636  3.5 3.02052855 3.18424606  3.5 2.0669806 3.632725  3.5 1.04967844 3.90746784  4 5.21972132 0.958802223  4 4.62159061 1.82634306  4 3.88091111 2.5758636  4 3.02052855 3.18424606  4 2.0669806 3.632725  4 1.04967844 3.90746784  4.5 5.21972132 0.958802223  4.5 4.62159061 1.82634306  4.5 3.88091111 2.5758636  4.5 3.02052855 3.18424606  4.5 2.0669806 3.632725  4.5 1.04967844 3.90746784  5 5.21972132 0.958802223  5 4.62159061 1.82634306  5 3.88091111 2.5758636  5 3.02052855 3.18424606  5 2.0669806 3.632725  5 1.04967844 3.90746784  5.5 5.21972132 0.958802223  5.5 4.62159061 1.82634306  5.5 3.88091111 2.5758636  5.5 3.02052855 3.18424606  5.5 2.0669806 3.632725  5.5 1.04967844 3.90746784  6 5.21972132 0.958802223  6 4.62159061 1.82634306  6 3.88091111 2.5758636  6 3.02052855 3.18424606  6 2.0669806 3.632725  6 1.04967844 3.90746784  6.5 5.21972132 0.958802223  6.5 4.62159061 1.82634306  6.5 3.88091111 2.5758636  6.5 3.02052855 3.18424606  6.5 2.0669806 3.632725  6.5 1.04967844 3.90746784  7 5.21972132 0.958802223  7 4.62159061 1.82634306  7 3.88091111 2.5758636  7 3.02052855 3.18424606  7 2.0669806 3.632725  7 1.04967844 3.90746784  7.5 5.21972132 0.958802223  7.5 4.62159061 1.82634306  7.5 3.88091111 2.5758636  7.5 3.02052855 3.18424606  7.5 2.0669806 3.632725  7.5 1.04967844 3.90746784  8 5.21972132 0.958802223  8 4.62159061 1.82634306  8 3.88091111 2.5758636  8 3.02052855 3.18424606  8 2.0669806 3.632725  8 1.04967844 3.90746784  8.5 5.21972132 0.958802223  8.5 4.62159061 1.82634306  8.5 3.88091111 2.5758636  8.5 3.02052855 3.18424606  8.5 2.0669806 3.632725  8.5 1.04967844 3.90746784  9 5.21972132 0.958802223  9 4.62159061 1.82634306  9 3.88091111 2.5758636  9 3.02052855 3.18424606  9 2.0669806 3.632725  9 1.04967844 3.90746784  9.5 5.21972132 0.958802223  9.5 4.62159061 1.82634306  9.5 3.88091111 2.5758636  9.5 3.02052855 3.18424606  9.5 2.0669806 3.632725  9.5 1.04967844 3.90746784  10 5.21972132 0.958802223  10 4.62159061 1.82634306  10 3.88091111 2.5758636  10 3.02052855 3.18424606  10 2.0669806 3.632725  10 1.04967844 3.90746784  10.5 5.21972132 0.958802223  10.5 4.62159061 1.82634306  10.5 3.88091111 2.5758636  10.5 3.02052855 3.18424606  10.5 2.0669806 3.632725  10.5 1.04967844 3.90746784  11 5.21972132 0.958802223  11 4.62159061 1.82634306  11 3.88091111 2.5758636  11 3.02052855 3.18424606  11 2.0669806 3.632725  11 1.04967844 3.90746784  11.5 5.21972132 0.958802223  11.5 4.62159061 1.82634306  11.5 3.88091111 2.5758636  11.5 3.02052855 3.18424606  11.5 2.0669806 3.632725  11.5 1.04967844 3.90746784  12 5.21972132 0.958802223  12 4.62159061 1.82634306  12 3.88091111 2.5758636  12 3.02052855 3.18424606  12 2.0669806 3.632725  12 1.04967844 3.90746784  12.5 5.21972132 0.958802223  12.5 4.62159061 1.82634306  12.5 3.88091111 2.5758636  12.5 3.02052855 3.18424606  12.5 2.0669806 3.632725  12.5 1.04967844 3.90746784  13 5.21972132 0.958802223  13 4.62159061 1.82634306  13 3.88091111 2.5758636  13 3.02052855 3.18424606  13 2.0669806 3.632725  13 1.04967844 3.90746784  13.5 5.21972132 0.958802223  13.5 4.62159061 1.82634306  13.5 3.88091111 2.5758636  13.5 3.02052855 3.18424606  13.5 2.0669806 3.632725  13.5 1.04967844 3.90746784  14 5.21972132 0.958802223  14 4.62159061 1.82634306  14 3.88091111 2.5758636  14 3.02052855 3.18424606  14 2.0669806 3.632725  14 1.04967844 3.90746784  14.5 5.21972132 0.958802223  14.5 4.62159061 1.82634306  14.5 3.88091111 2.5758636  14.5 3.02052855 3.18424606  14.5 2.0669806 3.632725  14.5 1.04967844 3.90746784  15 5.21972132 0.958802223  15 4.62159061 1.82634306  15 3.88091111 2.5758636  15 3.02052855 3.18424606  15 2.0669806 3.632725  15 1.04967844 3.90746784  15.5 5.21972132 0.958802223  15.5 4.62159061 1.82634306  15.5 3.88091111 2.5758636  15.5 3.02052855 3.18424606  15.5 2.0669806 3.632725  15.5 1.04967844 3.90746784  16 5.21972132 0.958802223  16 4.62159061 1.82634306  16 3.88091111 2.5758636  16 3.02052855 3.18424606  16 2.0669806 3.632725  16 1.04967844 3.90746784  16.5 5.21972132 0.958802223  16.5 4.62159061 1.82634306  16.5 3.88091111 2.5758636  16.5 3.02052855 3.18424606  16.5 2.0669806 3.632725  16.5 1.04967844 3.90746784  17 5.21972132 0.958802223  17 4.62159061 1.82634306  17 3.88091111 2.5758636  17 3.02052855 3.18424606  17 2.0669806 3.632725  17 1.04967844 3.90746784  17.5 5.21972132 0.958802223  17.5 4.62159061 1.82634306  17.5 3.88091111 2.5758636  17.5 3.02052855 3.18424606  17.
[...]
<PointData  Vectors="f_261141-0"> 
<DataArray  type="Float64"  Name="f_261141-0"  NumberOfComponents="3" format="ascii">0.0000000000000000e+00 0.0000000000000000e+00 0.0000000000000000e+00  0.0000000000000000e+00 0.0000000000000000e+00 8.6167653952660606e-01  0.0000000000000000e+00 1.0710374029235750e+00 0.0000000000000000e+00  1.0357157009033797e+01 0.0000000000000000e+00 -3.2047735282292118e+00  9.4613182414755208e+00 1.1393201254578820e+00 -4.2013858526131562e+00  9.5772084604035950e+00 0.0000000000000000e+00 -4.0776566947129957e+00  0.0000000000000000e+00 0.0000000000000000e+00 1.6500583510548425e-01  0.0000000000000000e+00 0.0000000000000000e+00 4.1158519267173843e-01  0.0000000000000000e+00 0.0000000000000000e+00 6.8750887401271321e-01  0.0000000000000000e+00 2.6512729670308349e-01 8.1793953428893829e-01  0.0000000000000000e+00 4.5576266289984080e-01 7.1498866215505252e-01  0.0000000000000000e+00 6.4130697750773913e-01 6.1516872487292640e-01  0.0000000000000000e+00 7.9827502063782352e-01 4.8751983646556807e-01  0.0000000000000000e+00 9.2256939261739579e-01 3.2415320999047170e-01  0.0000000000000000e+00 1.0153027788082487e+00 1.6742785682403596e-01  0.0000000000000000e+00 9.1316058895338803e-01 0.0000000000000000e+00  0.0000000000000000e+00 7.4762508259673288e-01 0.0000000000000000e+00  0.0000000000000000e+00 5.7932883711848093e-01 0.0000000000000000e+00  0.0000000000000000e+00 4.0249236930378074e-01 0.0000000000000000e+00  0.0000000000000000e+00 2.0819819655789604e-01 0.0000000000000000e+00  1.0194270083402678e-01 0.0000000000000000e+00 8.6463988853076190e-01  2.0680360643543744e-01 0.0000000000000000e+00 8.6440908421810880e-01  3.1175134316089737e-01 0.0000000000000000e+00 8.6347961417272023e-01  4.1919834588571114e-01 0.0000000000000000e+00 8.5860401362787087e-01  5.1680174421274550e-01 0.0000000000000000e+00 8.6925116719499929e-01  6.2692380163507555e-01 0.0000000000000000e+00 8.5663107478422140e-01  7.2706523214028818e-01 0.0000000000000000e+00 8.5287470062875581e-01  8.3644977515017005e-01 0.0000000000000000e+00 8.3786015354071397e-01  9.4117379426894932e-01 0.0000000000000000e+00 8.2523325464573660e-01  1.0442592139518563e+00 0.0000000000000000e+00 8.1139704653409017e-01  1.1460314924552633e+00 0.0000000000000000e+00 8.0449367380871939e-01  1.2496365941640506e+00 0.0000000000000000e+00 8.0546812273460688e-01  1.3536490455877423e+00 0.0000000000000000e+00 7.9929372825133804e-01  1.4653204594386688e+00 0.0000000000000000e+00 7.7459533682376813e-01  1.5659086042807198e+00 0.0000000000000000e+00 7.6616685545251118e-01  1.6758489165872776e+00 0.0000000000000000e+00 7.5211363022479016e-01  1.7802931985177348e+00 0.0000000000000000e+00 7.4001497686053697e-01  1.8853155544699047e+00 0.0000000000000000e+00 7.2233602061704794e-01  1.9867244531814552e+00 0.0000000000000000e+00 7.1382706349712222e-01  2.0886698241467538e+00 0.0000000000000000e+00 7.0208720102838007e-01  2.1915203856978298e+00 0.0000000000000000e+00 6.9686422685147564e-01  2.2937840320351062e+00 0.0000000000000000e+00 6.7110297242368444e-01  2.3990023503739892e+00 0.0000000000000000e+00 6.5839053010215975e-01  2.5045708840439467e+00 0.0000000000000000e+00 6.3758139920508661e-01  2.6056880982015942e+00 0.0000000000000000e+00 6.2756402553481261e-01  2.7136209294293225e+00 0.0000000000000000e+00 5.9834037611535040e-01  2.8189989438326681e+00 0.0000000000000000e+00 5.7309643588360482e-01  2.9195554248703748e+00 0.0000000000000000e+00 5.5769479534945565e-01  3.0249423120289407e+00 0.0000000000000000e+00 5.3460979725778401e-01  3.1313372242597590e+00 0.0000000000000000e+00 4.9864155731584664e-01  3.2243394948083659e+00 0.0000000000000000e+00 4.9945933666492143e-01  3.3247945019132419e+00 0.0000000000000000e+00 4.6665807705454065e-01  3.4296609629644603e+00 0.0000000000000000e+00 4.3417579143581281e-01  3.5360360250941625e+00 0.0000000000000000e+00 4.0093712162935274e-01  3.6448414081590190e+00 0.0000000000000000e+00 3.6984572800067889e-01  3.7509557617533824e+00 0.0000000000000000e+00 3.4453896400592737e-01  3.8581967450798520e+00 0.0000000000000000e+00 3.1651925537841569e-01  3.9605673949270006e+00 0.0000000000000000e+00 2.9411788689946727e-01  4.0680265940993978e+00 0.0000000000000000e+00 2.5476620979597958e-01  4.1705456564962518e+00 0.0000000000000000e+00 2.2903443525887526e-01  4.2679033886198523e+00 0.0000000000000000e+00 2.0464214816152523e-01  4.3748912741943693e+00 0.0000000000000000e+00 1.7150656247915028e-01  4.4750924553214446e+00 0.0000000000000000e+00 1.3872882406395157e-01  4.5847750115633596e+00 0.0000000000000000e+00 8.5393948254766289e-02  4.6824507651927201e+00 0.0000000000000000e+00 5.5406888286356502e-02  4.7835924790263427e+00 0.0000000000000000e+00 1.6910521581236449e-02  4.8864657692758877e+00 0.0000000000000000e+00 -1.1383765263565883e-02  4.9923032423681990e+00 0.0000000000000000e+00 -5.0547755315900625e-02  5.0956923193085402e+00 0.0000000000000000e+00 -8.6611063281849851e-02  5.2005617818910146e+00 0.0000000000000000e+00 -1.2665299219201293e-01  5.3056694974728460e+00 0.0000000000000000e+00 -1.7411173742871988e-01  5.4062150060143184e+00 0.0000000000000000e+00 -2.0556945851770136e-01  5.5125504662523097e+00 0.0000000000000000e+00 -2.5813813079672177e-01  5.6122636944043300e+00 0.0000000000000000e+00 -2.9269560065475725e-01  5.7162345668466887e+00 0.0000000000000000e+00 -3.4125708108298197e-01  5.8248533667947431e+00 0.0000000000000000e+00 -3.8640101046120778e-01  5.9268956489360534e+00 0.0000000000000000e+00 -4.3644202477972016e-01  6.0263399101625916e+00 0.0000000000000000e+00 -4.7864513212279602e-01  6.1300059646625362e+00 0.0000000000000000e+00 -5.2069423021478412e-01  6.2362089789585502e+00 0.0000000000000000e+00 -5.7966292407081710e-01  6.3378359310898063e+00 0.0000000000000000e+00 -6.3906646375337606e-01  6.4372970927904829e+00 0.0000000000000000e+00 -6.7884151958922456e-01  6.5406674910016287e+00 0.0000000000000000e+00 -7.3435786741519815e-01  6.6442204853517124e+00 0.0000000000000000e+00 -7.8915401451625167e-01  6.7429380137359276e+00 0.0000000000000000e+00 -8.2676888118699998e-01  6.8497951121134992e+00 0.0000000000000000e+00 -8.8171301037701610e-01  6.9555064990916939e+00 0.0000000000000000e+00 -9.3766753824302573e-01  7.0544260694367473e+00 0.0000000000000000e+00 -9.9125780471958191e-01  7.1577912168947933e+00 0.0000000000000000e+00 -1.0530398688016755e+00  7.2564946864191429e+00 0.0000000000000000e+00 -1.1107275231895515e+00  7.3570776188911324e+00 0.0000000000000000e+00 -1.1652401675373509e+00  7.4575629543898421e+00 0.0000000000000000e+00 -1.2279053496206100e+00  7.5626273448983614e+00 0.0000000000000000e+00 -1.2997683429471822e+00  7.6649510690949709e+00 0.0000000000000000e+00 -1.3614568631707253e+00  7.7687506244334790e+00 0.0000000000000000e+00 -1.4208315386246038e+00  7.8672761535844158e+00 0.0000000000000000e+00 -1.4821108666994072e+00  7.9712739709956457e+00 0.0000000000000000e+00 -1.5478438811694522e+00  8.0703207878602115e+00 0.0000000000000000e+00 -1.6097059676619534e+00  8.1750454517887121e+00 0.0000000000000000e+00 -1.6882041594802544e+00  8.2743628941164324e+00 0.0000000000000000e+00 -1.7535049159134992e+00  8.3736291900300550e+00 0.0000000000000000e+00 -1.8176246967631007e+00  8.4813556371845653e+00 0.0000000000000000e+00 -1.8894004946281961e+00  8.5847350807241316e+00 0.0000000000000000e+00 -1.9626707885894230e+00  8.6822149861510756e+00 0.0000000000000000e+00 -2.0232958317090590e+00  8.7868883900538588e+00 0.0000000000000000e+00 -2.1033334579891112e+00  8.8852787231762242e+00 0.0000000000000000e+00 -2.1702586268802855e+00  8.9870556857807991e+00 0.0000000000000000e+00 -2.2398195369419431e+00  9.0883893921563068e+00 0.0000000000000000e+00 -2.3202321990310555e+00  9.1895627423427904e+00 0.0000000000000000e+00 -2.4060049807877992e+00  9.2869632946578839e+00 0.0000000000000000e+00 -2.4799758156821912e+00  9.3884197207694040e+00 0.0000000000000000e+00 -2.5645033806756992e+00  9.4858162970544324e+00 0.0000000000000000e+00 -2.6407628514915569e+00  9.5836963320157640e+00 0.0000000000000000e+00 -2.7159692663186683e+00  9.6799040093988129e+00 0.0000000000000000e+00 -2.7844409340932859e+00  9.7780511509108816e+00 0.0000000000000000e+00 -2.8521394281673667e+00  9.8833437214682185e+00 0.0000000000000000e+00 -2.9111327754673950e+00  9.9954568010491709e+00 0.0000000000000000e+00 -2.9658756995522286e+00  1.0114149109669404e+01 0.0000000000000000e+00 -3.0346610806909387e+00  1.0237224846559705e+01 0.0000000000000000e+00 -3.1187679206865417e+00  1.0320309079570261e+01 2.7943656418396584e-01 -3.2216628976133257e+00  1.0261568355471859e+01 5.3246738077718436e-01 -3.3095067918068755e+00  1.0161013013083640e+01 7.6706981335054814e-01 -3.4428021681681491e+00  1.0022980854457879e+01 9.5016926404857882e-01 -3.6145510295506473e+00  9.8525749401833593e+00 1.0732970804287090e+00 -3.8203895250133755e+00  9.6520916486874846e+00 1.1280968810695506e+00 -4.0189394224205808e+00  9.3771126244913603e+00 1.1242559283356330e+00 -4.1073541483304288e+00  9.2930022633783516e+00 1.1110374832966783e+00 -4.0091058686041503e+00  9.2101563600840368e+00 1.1010489724569168e+00 -3.9128720950714087e+00  9.1262455202926915e+00 1.0891896467643052e+00 -3.8140385239043177e+00  9.0442702902253806e+00 1.0805996750069260e+00 -3.7240341337051288e+00  8.9628633698226334e+00 1.0769985382580356e+00 -3.6379278177210330e+00  8.8813459189115047e+00 1.0716202598928728e+00 -3.5514811183997459e+00  8.7980029150147487e+00 1.0709700396453350e+00 -3.4661107734951901e+00  8.7137244488085237e+00 1.0704409724827302e+00 -3.3809375586382471e+00  8.6292408112726040e+00 1.0698645027512492e+00 -3.2977079191616445e+00  8.5429433495010603e+00 1.0711798331863864e+00 -3.2149867842393420e+00  8.4557628816740991e+00 1.0768269315806742e+00 -3.1371186659119732e+00  8.3675430831934499e+00 1.0771227795832443e+00 -3.0570513230857945e+00  8.2783082118377962e+00 1.0767312691193116e+00 -2.9801862144026128e+00  8.1890465264348133e+00 1.0807609848453870e+00 -2.9111707490058936e+00  8.0942147581016712e+00 1.0782695698516622e+00 -2.8384033768898744e+00  8.0051351870534475e+00 1.0802657011044354e+00 -2.7629138948162479e+00  7.9139595865283390e+00 1.0850196160667300e+00 -2.6903399339734695e+00  7.8234243843807372e+00 1.0868822779279883e+00 -2.6210598892911214e+00  7.7318077566293741e+00 1.0903815280015663e+00 -2.5505826631276145e+00  7.6398174820764915e+00 1.0929422738101318e+00 -2.4801598693214593e+00  7.5469835645127326e+00 1.0932114829670216e+00 -2.4095820057269068e+00  7.4531207110953028e+00 1.0962124482779951e+00 -2.3439957083484328e+00  7.3597124857430876e+00 1.0908985681322350e+00 -2.2792828388287592e+00  7.2662436860430377e+00 1.0927286810702272e+00 -2.2190308934907712e+00  7.1723765173623191e+00 1.0936706876250688e+00 -2.1582948402622124e+00  7.0773340105930593e+00 1.0942138503514522e+00 -2.0985088400065495e+00  6.9823773128626794e+00 1.0933439248390562e+00 -2.0399761227682531e+00  6.8872991268482036e+00 1.0952301860755400e+00 -1.9832292147222963e+00  6.7923177949928801e+00 1.0931572836973504e+00 -1.9241221907165906e+00  6.6967856266651511e+00 1.0936233355052489e+00 -1.8676195655055963e+00  6.6013947154986452e+00 1.0960592730615577e+00 -1.8130811659555057e+00  6.5059326973298619e+00 1.0928290689562767e+00 -1.7584453616683120e+00  6.4099084981653576e+00 1.0902722866365573e+00 -1.7050374725551520e+00  6.3144609889481922e+00 1.0893053534278454e+00 -1.6527315895474044e+00  6.2189474601240109e+00 1.0876779484009647e+00 -1.6004512085659461e+00  6.1238216399080407e+00 1.0865277676172029e+00 -1.5486288618194035e+00  6.0278506539139221e+00 1.0897412991032407e+00 -1.4978246299883113e+00  5.9317111661705777e+00 1.0925245014780325e+00 -1.4496008405144483e+00  5.8360775629218233e+00 1.0877208761871289e+00 -1.4006057838210144e+00  5.7398983725787760e+00 1.0863509543035845e+00 -1.3529702618783246e+00  5.6440330366153315e+00 1.0885603265446993e+00 -1.3073227590506822e+00  5.5490709250159300e+00 1.0844622804249502e+00 -1.2589913096690515e+00  5.4530147481132856e+00 1.0860804333000404e+00 -1.2126989750035111e+00  5.3570272711049158e+00 1.0883531060357079e+00 -1.1684901488170529e+00  5.2613806650481925e+00 1.0872336558204516e+00 -1.1226092999784936e+00  5.1666317395604038e+00 1.0874752544884267e+00 -1.0790108549272714e+00  5.0705501643641240e+00 1.0897788260447376e+00 -1.0370471206382215e+00  4.9743789355748946e+00 1.0874208131741860e+00 -9.9208550418806818e-01  4.8772038896302385e+00 1.0893048801188374e+00 -9.4786785290570630e-01  4.7805695097289505e+00 1.0908547749310917e+00 -9.0950347936150167e-01  4.6827645159300211e+00 1.0928833116730357e+00 -8.7355626119846086e-01  4.5849634839139997e+00 1.0887744449225780e+00 -8.3603535870012791e-01  4.4894393895481084e+00 1.0909629138920574e+00 -7.9847896456475120e-01  4.3933796613301892e+00 1.0911296259654875e+00 -7.6428458332676752e-01  4.2960687126289354e+00 1.0913578813134357e+00 -7.2779192535069803e-01  4.1990242842366214e+00 1.0890718863505828e+00 -6.9039773065322074e-01  4.1019939759111717e+00 1.0923415386257718e+00 -6.5734866240177703e-01  4.0057336285418730e+00 1.0917210770708179e+00 -6.2588812431927254e-01  3.9098707041631098e+00 1.0919759618733369e+00 -5.9588279990516846e-01  3.8121071118031500e+00 1.0951378262888798e+00 -5.6735757283608124e-01  3.7149565506163635e+00 1.0913314535721392e+00 -5.3793270426214923e-01  3.6166159203344996e+00 1.0900563218146835e+00 -5.0902134509185781e-01  3.5191535879154632e+00 1.0916343391696253e+00 -4.8366303422182411e-01  3.4216594390803556e+00 1.0889549370318619e+00 -4.5601593946216273e-01  3.3240175556514981e+00 1.0824542822151111e+00 -4.2727234531185992e-01  3.2270129964697296e+00 1.0833747853296598e+00 -4.0616833526331014e-01  3.1296252869571513e+00 1.0813353388919349e+00 -3.8277885603199230e-01  3.0327361472985737e+00 1.0825429454220663e+00 -3.5921747185687419e-01  2.9361209713336556e+00 1.0827860742291116e+00 -3.3497055975651557e-01  2.8384091497805288e+00 1.0831678116674677e+00 -3.1018804421951268e-01  2.7403013284457867e+00 1.0835761483222293e+00 -2.8692905339414099e-01  2.6426825347111054e+00 1.0858284111545522e+00 -2.6685554194972816e-01  2.5451876646988789e+00 1.0860581937145455e+00 -2.4570183117695107e-01  2.4474673096354462e+00 1.0865051100661527e+00 -2.2498932337069438e-01  2.3502629620492503e+00 1.0842258473673436e+00 -2.0443983606586152e-01  2.2532810007570401e+00 1.0843425255629375e+00 -1.8723912021230008e-01  2.1563937101823574e+00 1.0867654278745040e+00 -1.7059312275765989e-01  2.0579302607175594e+00 1.0870165693467098e+00 -1.5399687993035610e-01  1.9594508659616459e+00 1.0848832150889742e+00 -1.3491076770192745e-01  1.8616999475174927e+00 1.0885119125171483e+00 -1.2059758879846380e-01  1.7630029421165747e+00 1.0903124651067655e+00 -1.0563370071995035e-01  1.6650431237695182e+00 1.0851608943659197e+00 -8.8885189802713566e-02  1.5670064353044784e+00 1.0857752193860279e+00 -7.7475576920760347e-02  1.4699272751905177e+00 1.0853356713800615e+00 -6.7334029180237912e-02  1.3725710021552158e+00 1.0861398095838672e+00 -5.6059223425318126e-02  1.2749697414152847e+00 1.0849612602973926e+00 -4.2710989267161915e-02  1.1771597972304200e+00 1.0887217980612318e+00 -3.5233934534453865e-02  1.0791712728425744e+00 1.0896287249866783e+00 -2.7400024029118199e-02  9.8102412771458414e-01 1.0893217202271603e+00 -1.9434001250863024e-02  8.8232917128286192e-01 1.0878124692675377e+00 -1.3436254662242958e-02  7.8420124635632527e-01 1.0865857506502197e+00 -8.9364364467617100e-03  6.8542981943675774e-01 1.0864992269688321e+00 -5.2666439117758021e-03  5.8619807978487481e-01 1.0841520377456684e+00 3.4467626187408235e-04  4.8832287778770966e-01 1.0819362336102558e+00 2.4466692990953846e-03  3.9011537278019137e-01 1.0824429478440849e+00 6.8150693657905630e-04  2.9185350382761466e-01 1.0764773090104121e+00 1.0621919756110417e-03  1.9398160398481340e-01 1.0741016137884629e+00 0.0000000000000000e+00  9.6588590131218816e-02 1.0697455515895971e+00 0.0000000000000000e+00  9.4903721237630485e+00 9.6929270136093748e-01 -4.1582714253486994e+00  9.5144356387282567e+00 7.8247702624370608e-01 -4.1300716871749197e+00  9.5419134422002401e+00 6.0319900978329366e-01 -4.1103804935426025e+00  9.5526800932473446e+00 3.9578801050831880e-01 -4.0998577969426249e+00  9.5673195039459298e+00 1.9106937282438394e-01 -4.0904847562957682e+00  9.4981570057901390e+00 0.0000000000000000e+00 -3.9894075614871318e+00  9.4156057339220016e+00 0.0000000000000000e+00 -3.9065558169026953e+00  9.3293497432145021e+00 0.0000000000000000e+00 -3.8189331313815806e+00  9.2392497735286128e+00 0.0000000000000000e+00 -3.7397896313902748e+00  9.1488815195932478e+00 0.0000000000000000e+00 -3.6655126210834084e+00  9.0548809045090604e+00 0.0000000000000000e+00 -3.5859084948482005e+00  8.9638082517185698e+00 0.0000000000000000e+00 -3.5156721824099075e+00  8.8665046250421522e+00 0.0000000000000000e+00 -3.4436116810217765e+00  8.7698492450395786e+00 0.0000000000000000e+00 -3.3617640661078019e+00  8.6741688549058829e+00 0.0000000000000000e+00 -3.3013203310881876e+00  8.5784472382603649e+00 0.0000000000000000e+00 -3.2308314772101183e+00  8.4862630880499150e+00 0.0000000000000000e+00 -3.1563262344718548e+00  8.3934159084903843e+00 0.0000000000000000e+00 -3.0761402775542193e+00  8.2962528890719351e+00 0.0000000000000000e+00 -2.9978747622723385e+00  8.2038452004008136e+00 0.0000000000000000e+00 -2.9402065042852219e+00  8.1119479522712403e+00 0.0000000000000000e+00 -2.8755733144268869e+00  8.0203163893997402e+00 0.0000000000000000e+00 -2.8001135633915251e+00  7.9238432171098703e+00 0.0000000000000000e+00 -2.7247480896904652e+00  7.8261674743057892e+00 0.0000000000000000e+00 -2.6739638353945980e+00  7.7334157034288857e+00 0.0000000000000000e+00 -2.6023648728878026e+00  7.6386526767203780e+00 0.0000000000000000e+00 -2.5318145179866929e+00  7.5474696832971278e+00 0.0000000000000000e+00 -2.4718171484525713e+00  7.4536063857201125e+00 0.0000000000000000e+00 -2.3993082683308864e+00  7.3570845949550501e+00 0.0000000000000000e+00 -2.3439416408078984e+00  7.2654714027153702e+00 0.0000000000000000e+00 -2.2802509379752238e+00  7.1713736373786539e+00 0.0000000000000000e+00 -2.2119515437035795e+00  7.0737827007251139e+00 0.0000000000000000e+00 -2.1486145666965077e+00  6.9767655817085750e+00 0.0000000000000000e+00 -2.0982903293720541e+00  6.8816210306733883e+00 0.0000000000000000e+00 -2.0378098313216682e+00  6.7857613392231082e+00 0.0000000000000000e+00 -1.9854627789987422e+00  6.6950025547722269e+00 0.0000000000000000e+00 -1.9337977902758237e+00  6.6012708257092747e+00 0.0000000000000000e+00 -1.8748652475742722e+00  6.5063973243830731e+00 0.0000000000000000e+00 -1.8035790803353469e+00  6.4082710308610826e+00 0.0000000000000000e+00 -1.7566025906670821e+00  6.3105377643878580e+00 0.0000000000000000e+00 -1.6931941794068739e+00  6.2169457171939033e+00 0.0000000000000000e+00 -1.6528513622950152e+00  6.1205976643706173e+00 0.0000000000000000e+00 -1.5956026845281575e+00  6.0203097929808749e+00 0.0000000000000000e+00 -1.5383839751209558e+00  5.9237643295456701e+00 0.0000000000000000e+00 -1.4930067299873586e+00  5.8312847410000730e+00 0.0000000000000000e+00 -1.4357296528277170e+00  5.7388235487573747e+00 0.0000000000000000e+00 -1.3985493132790907e+00  5.6468309042790121e+00 0.0000000000000000e+00 -1.3446583010392323e+00  5.5491030868838589e+00 0.0000000000000000e+00 -1.2918614202946619e+00  5.4578162230560787e+00 0.0000000000000000e+00 -1.2608003424869791e+00  5.3636596265950631e+00 0.0000000000000000e+00 -1.2153649594589255e+00  5.2664611013765539e+00 0.0000000000000000e+00 -1.1583705044453747e+00  5.1699674539195852e+00 0.0000000000000000e+00 -1.1235026294983621e+00  5.0727603950865969e+00 0.0000000000000000e+00 -1.0786887930446545e+00  4.9715221718006308e+00 0.0000000000000000e+00 -1.0434529669195238e+00  4.8768649580075003e+00 0.0000000000000000e+00 -1.0033785721369293e+00  4.7800266458430301e+00 0.0000000000000000e+00 -9.7133457381001154e-01  4.6822239024684871e+00 0.0000000000000000e+00 -9.2288335005034994e-01