<?xml version="1.0"?>
<VTKFile type="UnstructuredGrid"  version="0.1"  >
<UnstructuredGrid>
<Piece  NumberOfPoints="3069" NumberOfCells="12882">
<Points>
<DataArray  type="Float64"  NumberOfComponents="3"  format="ascii">0 0 0  0 0 4  0 5.65685415 0  50 0 4  50 5.65685415 0  50 0 0  0 0 1  0 0 2  0 0 3  0 1.04967844 3.90746784  0 2.0669806 3.632725  0 3.02052855 3.18424606  0 3.88091111 2.5758636  0 4.62159061 1.82634306  0 5.21972132 0.958802283  0 4.71404505 0  0 3.77123618 0  0 2.82842708 0  0 1.88561809 0  0 0.942809045 0  0.5 0 4  1 0 4  1.5 0 4  2 0 4  2.5 0 4  3 0 4  3.5 0 4  4 0 4  4.5 0 4  5 0 4  5.5 0 4  6 0 4  6.5 0 4  7 0 4  7.5 0 4  8 0 4  8.5 0 4  9 0 4  9.5 0 4  10 0 4  10.5 0 4  11 0 4  11.5 0 4  12 0 4  12.5 0 4  13 0 4  13.5 0 4  14 0 4  14.5 0 4  15 0 4  15.5 0 4  16 0 4  16.5 0 4  17 0 4  17.5 0 4  18 0 4  18.5 0 4  19 0 4  19.5 0 4  20 0 4  20.5 0 4  21 0 4  21.5 0 4  22 0 4  22.5 0 4  23 0 4  23.5 0 4  24 0 4  24.5 0 4  25 0 4  25.5 0 4  26 0 4  26.5 0 4  27 0 4  27.5 0 4  28 0 4  28.5 0 4  29 0 4  29.5 0 4  30 0 4  30.5 0 4  31 0 4  31.5 0 4  32 0 4  32.5 0 4  33 0 4  33.5 0 4  34 0 4  34.5 0 4  35 0 4  35.5 0 4  36 0 4  36.5 0 4  37 0 4  37.5 0 4  38 0 4  38.5 0 4  39 0 4  39.5 0 4  40 0 4  40.5 0 4  41 0 4  41.5 0 4  42 0 4  42.5 0 4  43 0 4  43.5 0 4  44 0 4  44.5 0 4  45 0 4  45.5 0 4  46 0 4  46.5 0 4  47 0 4  47.5 0 4  48 0 4  48.5 0 4  49 0 4  49.5 0 4  50 1.04967844 3.90746784  50 2.0669806 3.632725  50 3.02052855 3.18424606  50 3.88091111 2.5758636  50 4.62159061 1.82634306  50 5.21972132 0.958802283  49.5 5.65685415 0  49 5.65685415 0  48.5 5.65685415 0  48 5.65685415 0  47.5 5.65685415 0  47 5.65685415 0  46.5 5.65685415 0  46 5.65685415 0  45.5 5.65685415 0  45 5.65685415 0  44.5 5.65685415 0  44 5.65685415 0  43.5 5.65685415 0  43 5.65685415 0  42.5 5.65685415 0  42 5.65685415 0  41.5 5.65685415 0  41 5.65685415 0  40.5 5.65685415 0  40 5.65685415 0  39.5 5.65685415 0  39 5.65685415 0  38.5 5.65685415 0  38 5.65685415 0  37.5 5.65685415 0  37 5.65685415 0  36.5 5.65685415 0  36 5.65685415 0  35.5 5.65685415 0  35 5.65685415 0  34.5 5.65685415 0  34 5.65685415 0  33.5 5.65685415 0  33 5.65685415 0  32.5 5.65685415 0  32 5.65685415 0  31.5 5.65685415 0  31 5.65685415 0  30.5 5.65685415 0  30 5.65685415 0  29.5 5.65685415 0  29 5.65685415 0  28.5 5.65685415 0  28 5.65685415 0  27.5 5.65685415 0  27 5.65685415 0  26.5 5.65685415 0  26 5.65685415 0  25.5 5.65685415 0  25 5.65685415 0  24.5 5.65685415 0  24 5.65685415 0  23.5 5.65685415 0  23 5.65685415 0  22.5 5.65685415 0  22 5.65685415 0  21.5 5.65685415 0  21 5.65685415 0  20.5 5.65685415 0  20 5.65685415 0  19.5 5.65685415 0  19 5.65685415 0  18.5 5.65685415 0  18 5.65685415 0  17.5 5.65685415 0  17 5.65685415 0  16.5 5.65685415 0  16 5.65685415 0  15.5 5.65685415 0  15 5.65685415 0  14.5 5.65685415 0  14 5.65685415 0  13.5 5.65685415 0  13 5.65685415 0  12.5 5.65685415 0  12 5.65685415 0  11.5 5.65685415 0  11 5.65685415 0  10.5 5.65685415 0  10 5.65685415 0  9.5 5.65685415 0  9 5.65685415 0  8.5 5.65685415 0  8 5.65685415 0  7.5 5.65685415 0  7 5.65685415 0  6.5 5.65685415 0  6 5.65685415 0  5.5 5.65685415 0  5 5.65685415 0  4.5 5.65685415 0  4 5.65685415 0  3.5 5.65685415 0  3 5.65685415 0  2.5 5.65685415 0  2 5.65685415 0  1.5 5.65685415 0  1 5.65685415 0  0.5 5.65685415 0  50 4.71404505 0  50 3.77123618 0  50 2.82842708 0  50 1.88561809 0  50 0.942809045 0  49.5 0 0  49 0 0  48.5 0 0  48 0 0  47.5 0 0  47 0 0  46.5 0 0  46 0 0  45.5 0 0  45 0 0  44.5 0 0  44 0 0  43.5 0 0  43 0 0  42.5 0 0  42 0 0  41.5 0 0  41 0 0  40.5 0 0  40 0 0  39.5 0 0  39 0 0  38.5 0 0  38 0 0  37.5 0 0  37 0 0  36.5 0 0  36 0 0  35.5 0 0  35 0 0  34.5 0 0  34 0 0  33.5 0 0  33 0 0  32.5 0 0  32 0 0  31.5 0 0  31 0 0  30.5 0 0  30 0 0  29.5 0 0  29 0 0  28.5 0 0  28 0 0  27.5 0 0  27 0 0  26.5 0 0  26 0 0  25.5 0 0  25 0 0  24.5 0 0  24 0 0  23.5 0 0  23 0 0  22.5 0 0  22 0 0  21.5 0 0  21 0 0  20.5 0 0  20 0 0  19.5 0 0  19 0 0  18.5 0 0  18 0 0  17.5 0 0  17 0 0  16.5 0 0  16 0 0  15.5 0 0  15 0 0  14.5 0 0  14 0 0  13.5 0 0  13 0 0  12.5 0 0  12 0 0  11.5 0 0  11 0 0  10.5 0 0  10 0 0  9.5 0 0  9 0 0  8.5 0 0  8 0 0  7.5 0 0  7 0 0  6.5 0 0  6 0 0  5.5 0 0  5 0 0  4.5 0 0  4 0 0  3.5 0 0  3 0 0  2.5 0 0  2 0 0  1.5 0 0  1 0 0  0.5 0 0  50 0 1  50 0 2  50 0 3  0 2.33524275 0.893602192  0 2.87561393 1.93323028  0 4.2367816 0.876864135  0 2.00050235 2.65534091  0 0.981494486 2.34323239  0 3.78543234 1.61830366  0 3.30545568 0.887000024  0 0.812916458 1.58408713  0 1.71948838 1.71268857  0 1.28267908 0.8650629520000001  0 1.21973121 3.10775328  0.5 5.21972132 0.958802223  0.5 4.62159061 1.82634306  0.5 3.88091111 2.5758636  0.5 3.02052855 3.18424606  0.5 2.0669806 3.632725  0.5 1.04967844 3.90746784  1 5.21972132 0.958802223  1 4.62159061 1.82634306  1 3.88091111 2.5758636  1 3.02052855 3.18424606  1 2.0669806 3.632725  1 1.04967844 3.90746784  1.5 5.21972132 0.958802223  1.5 4.62159061 1.82634306  1.5 3.88091111 2.5758636  1.5 3.02052855 3.18424606  1.5 2.0669806 3.632725  1.5 1.04967844 3.90746784  2 5.21972132 0.958802223  2 4.62159061 1.82634306  2 3.88091111 2.5758636  2 3.02052855 3.18424606  2 2.0669806 3.632725  2 1.04967844 3.90746784  2.5 5.21972132 0.958802223  2.5 4.62159061 1.82634306  2.5 3.88091111 2.5758636  2.5 3.02052855 3.18424606  2.5 2.0669806 3.632725  2.5 1.04967844 3.90746784  3 5.21972132 0.958802223  3 4.62159061 1.82634306  3 3.88091111 2.5758636  3 3.02052855 3.18424606  3 2.0669806 3.632725  3 1.04967844 3.90746784  3.5 5.21972132 0.958802223  3.5 4.62159061 1.82634306  3.5 3.88091111 2.5758636  3.5 3.02052855 3.18424606  3.5 2.0669806 3.632725  3.5 1.04967844 3.90746784  4 5.21972132 0.958802223  4 4.62159061 1.82634306  4 3.88091111 2.5758636  4 3.02052855 3.18424606  4 2.0669806 3.632725  4 1.04967844 3.90746784  4.5 5.21972132 0.958802223  4.5 4.62159061 1.82634306  4.5 3.88091111 2.5758636  4.5 3.02052855 3.18424606  4.5 2.0669806 3.632725  4.5 1.04967844 3.90746784  5 5.21972132 0.958802223  5 4.62159061 1.82634306  5 3.88091111 2.5758636  5 3.02052855 3.18424606  5 2.0669806 3.632725  5 1.04967844 3.90746784  5.5 5.21972132 0.958802223  5.5 4.62159061 1.82634306  5.5 3.88091111 2.5758636  5.5 3.02052855 3.18424606  5.5 2.0669806 3.632725  5.5 1.04967844 3.90746784  6 5.21972132 0.958802223  6 4.62159061 1.82634306  6 3.88091111 2.5758636  6 3.02052855 3.18424606  6 2.0669806 3.632725  6 1.04967844 3.90746784  6.5 5.21972132 0.958802223  6.5 4.62159061 1.82634306  6.5 3.88091111 2.5758636  6.5 3.02052855 3.18424606  6.5 2.0669806 3.632725  6.5 1.04967844 3.90746784  7 5.21972132 0.958802223  7 4.62159061 1.82634306  7 3.88091111 2.5758636  7 3.02052855 3.18424606  7 2.0669806 3.632725  7 1.04967844 3.90746784  7.5 5.21972132 0.958802223  7.5 4.62159061 1.82634306  7.5 3.88091111 2.5758636  7.5 3.02052855 3.18424606  7.5 2.0669806 3.632725  7.5 1.04967844 3.90746784  8 5.21972132 0.958802223  8 4.62159061 1.82634306  8 3.88091111 2.5758636  8 3.02052855 3.18424606  8 2.0669806 3.632725  8 1.04967844 3.90746784  8.5 5.21972132 0.958802223  8.5 4.62159061 1.82634306  8.5 3.88091111 2.5758636  8.5 3.02052855 3.18424606  8.5 2.0669806 3.632725  8.5 1.04967844 3.90746784  9 5.21972132 0.958802223  9 4.62159061 1.82634306  9 3.88091111 2.5758636  9 3.02052855 3.18424606  9 2.0669806 3.632725  9 1.04967844 3.90746784  9.5 5.21972132 0.958802223  9.5 4.62159061 1.82634306  9.5 3.88091111 2.5758636  9.5 3.02052855 3.18424606  9.5 2.0669806 3.632725  9.5 1.04967844 3.90746784  10 5.21972132 0.958802223  10 4.62159061 1.82634306  10 3.88091111 2.5758636  10 3.02052855 3.18424606  10 2.0669806 3.632725  10 1.04967844 3.90746784  10.5 5.21972132 0.958802223  10.5 4.62159061 1.82634306  10.5 3.88091111 2.5758636  10.5 3.02052855 3.18424606  10.5 2.0669806 3.632725  10.5 1.04967844 3.90746784  11 5.21972132 0.958802223  11 4.62159061 1.82634306  11 3.88091111 2.5758636  11 3.02052855 3.18424606  11 2.0669806 3.632725  11 1.04967844 3.90746784  11.5 5.21972132 0.958802223  11.5 4.62159061 1.82634306  11.5 3.88091111 2.5758636  11.5 3.02052855 3.18424606  11.5 2.0669806 3.632725  11.5 1.04967844 3.90746784  12 5.21972132 0.958802223  12 4.62159061 1.82634306  12 3.88091111 2.5758636  12 3.02052855 3.18424606  12 2.0669806 3.632725  12 1.04967844 3.90746784  12.5 5.21972132 0.958802223  12.5 4.62159061 1.82634306  12.5 3.88091111 2.5758636  12.5 3.02052855 3.18424606  12.5 2.0669806 3.632725  12.5 1.04967844 3.90746784  13 5.21972132 0.958802223  13 4.62159061 1.82634306  13 3.88091111 2.5758636  13 3.02052855 3.18424606  13 2.0669806 3.632725  13 1.04967844 3.90746784  13.5 5.21972132 0.958802223  13.5 4.62159061 1.82634306  13.5 3.88091111 2.5758636  13.5 3.02052855 3.18424606  13.5 2.0669806 3.632725  13.5 1.04967844 3.90746784  14 5.21972132 0.958802223  14 4.62159061 1.82634306  14 3.88091111 2.5758636  14 3.02052855 3.18424606  14 2.0669806 3.632725  14 1.04967844 3.90746784  14.5 5.21972132 0.958802223  14.5 4.62159061 1.82634306  14.5 3.88091111 2.5758636  14.5 3.02052855 3.18424606  14.5 2.0669806 3.632725  14.5 1.04967844 3.90746784  15 5.21972132 0.958802223  15 4.62159061 1.82634306  15 3.88091111 2.5758636  15 3.02052855 3.18424606  15 2.0669806 3.632725  15 1.04967844 3.90746784  15.5 5.21972132 0.958802223  15.5 4.62159061 1.82634306  15.5 3.88091111 2.5758636  15.5 3.02052855 3.18424606  15.5 2.0669806 3.632725  15.5 1.04967844 3.90746784  16 5.21972132 0.958802223  16 4.62159061 1.82634306  16 3.88091111 2.5758636  16 3.02052855 3.18424606  16 2.0669806 3.632725  16 1.04967844 3.90746784  16.5 5.21972132 0.958802223  16.5 4.62159061 1.82634306  16.5 3.88091111 2.5758636  16.5 3.02052855 3.18424606  16.5 2.0669806 3.632725  16.5 1.04967844 3.90746784  17 5.21972132 0.958802223  17 4.62159061 1.82634306  17 3.88091111 2.5758636  17 3.02052855 3.18424606  17 2.0669806 3.632725  17 1.04967844 3.90746784  17.5 5.21972132 0.958802223  17.5 4.62159061 1.82634306  17.5 3.88091111 2.5758636  17.5 3.02052855 3.18424606  17.
[...]
<PointData  Vectors="f_261141-0"> 
<DataArray  type="Float64"  Name="f_261141-0"  NumberOfComponents="3" format="ascii">0.0000000000000000e+00 0.0000000000000000e+00 0.0000000000000000e+00  0.0000000000000000e+00 0.0000000000000000e+00 7.6052732620387198e-01  0.0000000000000000e+00 1.0344456824736046e+00 0.0000000000000000e+00  9.5094975635857182e+00 0.0000000000000000e+00 -3.2443320060052783e-01  9.1254450894916239e+00 1.0930278639937532e+00 -1.3033174112304389e+00  9.2118228260498416e+00 0.0000000000000000e+00 -1.2121735206470166e+00  0.0000000000000000e+00 0.0000000000000000e+00 1.7780024506112835e-01  0.0000000000000000e+00 0.0000000000000000e+00 3.7528987236154265e-01  0.0000000000000000e+00 0.0000000000000000e+00 5.7896248324456900e-01  0.0000000000000000e+00 2.1067292487671008e-01 7.3751044314447800e-01  0.0000000000000000e+00 3.9655024253485210e-01 6.7185643000358231e-01  0.0000000000000000e+00 5.7101168366510147e-01 5.8476167838401749e-01  0.0000000000000000e+00 7.2544256271703311e-01 4.6981606141293070e-01  0.0000000000000000e+00 8.5660608508233904e-01 3.2811473939383196e-01  0.0000000000000000e+00 9.6086303889629665e-01 1.7151375350560322e-01  0.0000000000000000e+00 8.6710431813806665e-01 0.0000000000000000e+00  0.0000000000000000e+00 6.9776409257962790e-01 0.0000000000000000e+00  0.0000000000000000e+00 5.2806582899763488e-01 0.0000000000000000e+00  0.0000000000000000e+00 3.5645435424382133e-01 0.0000000000000000e+00  0.0000000000000000e+00 1.8023739994004814e-01 0.0000000000000000e+00  9.3322237800431099e-02 0.0000000000000000e+00 7.6128438691307032e-01  1.8750615300447360e-01 0.0000000000000000e+00 7.6144879138351906e-01  2.8165335675074110e-01 0.0000000000000000e+00 7.6191678031059584e-01  3.7649983656748554e-01 0.0000000000000000e+00 7.6045857659832594e-01  4.6879864329235582e-01 0.0000000000000000e+00 7.6311545956032512e-01  5.6420729537025183e-01 0.0000000000000000e+00 7.5950685229864856e-01  6.5693728975283017e-01 0.0000000000000000e+00 7.5873649196673465e-01  7.5234142409530580e-01 0.0000000000000000e+00 7.5439988259836399e-01  8.4631937088407394e-01 0.0000000000000000e+00 7.5090434591380328e-01  9.4004905963054353e-01 0.0000000000000000e+00 7.4659798303954628e-01  1.0332482392955993e+00 0.0000000000000000e+00 7.4469199128654195e-01  1.1271498510078346e+00 0.0000000000000000e+00 7.4430063846410466e-01  1.2212285988150311e+00 0.0000000000000000e+00 7.4211252433737462e-01  1.3170107190747642e+00 0.0000000000000000e+00 7.3578360994313752e-01  1.4093724610456546e+00 0.0000000000000000e+00 7.3437051236414819e-01  1.5049540708621698e+00 0.0000000000000000e+00 7.2975848523919506e-01  1.5988558358979095e+00 0.0000000000000000e+00 7.2557812985099612e-01  1.6929737362261295e+00 0.0000000000000000e+00 7.2047298464217391e-01  1.7862227657978251e+00 0.0000000000000000e+00 7.1757922141174946e-01  1.8796507283029256e+00 0.0000000000000000e+00 7.1383690477686124e-01  1.9732457222405169e+00 0.0000000000000000e+00 7.1197807856795337e-01  2.0666504409895103e+00 0.0000000000000000e+00 7.0503057266606950e-01  2.1610291410064435e+00 0.0000000000000000e+00 7.0128103820871546e-01  2.2552101059369973e+00 0.0000000000000000e+00 6.9496911524539062e-01  2.3482202414214952e+00 0.0000000000000000e+00 6.9162746810977282e-01  2.4433337384631391e+00 0.0000000000000000e+00 6.8337585609035845e-01  2.5377387175200647e+00 0.0000000000000000e+00 6.7594330645509526e-01  2.6307335599339088e+00 0.0000000000000000e+00 6.7143701376073273e-01  2.7251665925493889e+00 0.0000000000000000e+00 6.6413482754544717e-01  2.8200834310599920e+00 0.0000000000000000e+00 6.5398951739975031e-01  2.9107458452007768e+00 0.0000000000000000e+00 6.5406345290669732e-01  3.0037641467365015e+00 0.0000000000000000e+00 6.4448071938478091e-01  3.0980953122682084e+00 0.0000000000000000e+00 6.3539401857892730e-01  3.1925689245535755e+00 0.0000000000000000e+00 6.2627818079100639e-01  3.2877682319647796e+00 0.0000000000000000e+00 6.1708837731628097e-01  3.3822197774245204e+00 0.0000000000000000e+00 6.0920296423190978e-01  3.4770773064222373e+00 0.0000000000000000e+00 6.0069889618835659e-01  3.5704493692910391e+00 0.0000000000000000e+00 5.9430657575045664e-01  3.6653540850925923e+00 0.0000000000000000e+00 5.8258045878477027e-01  3.7588554458891452e+00 0.0000000000000000e+00 5.7479255252966721e-01  3.8510145698267810e+00 0.0000000000000000e+00 5.6765685787439635e-01  3.9461212407041817e+00 0.0000000000000000e+00 5.5816413263940223e-01  4.0389560492138745e+00 0.0000000000000000e+00 5.4888460985677767e-01  4.1348766183879402e+00 0.0000000000000000e+00 5.3384425612487441e-01  4.2271742243341439e+00 0.0000000000000000e+00 5.2498464289996316e-01  4.3205922730413215e+00 0.0000000000000000e+00 5.1374718758739824e-01  4.4142361916379009e+00 0.0000000000000000e+00 5.0489409863216306e-01  4.5087657866721926e+00 0.0000000000000000e+00 4.9287480612415924e-01  4.6025300307018977e+00 0.0000000000000000e+00 4.8217590100503677e-01  4.6969880437673730e+00 0.0000000000000000e+00 4.6997350636918783e-01  4.7914540409605042e+00 0.0000000000000000e+00 4.5644826357347729e-01  4.8844475685287261e+00 0.0000000000000000e+00 4.4663912320756627e-01  4.9792625827167587e+00 0.0000000000000000e+00 4.3148276674249114e-01  5.0720599659767407e+00 0.0000000000000000e+00 4.2110939210332526e-01  5.1661548422637527e+00 0.0000000000000000e+00 4.0717778651430153e-01  5.2616193792214778e+00 0.0000000000000000e+00 3.9393196104443562e-01  5.3552214109533631e+00 0.0000000000000000e+00 3.7964720889661629e-01  5.4482408269085303e+00 0.0000000000000000e+00 3.6684003147639249e-01  5.5420039697868697e+00 0.0000000000000000e+00 3.5494215728855621e-01  5.6369895412475524e+00 0.0000000000000000e+00 3.3824105230951940e-01  5.7308066831220152e+00 0.0000000000000000e+00 3.2123686980121940e-01  5.8237458620546851e+00 0.0000000000000000e+00 3.0924427736115262e-01  5.9179914023552147e+00 0.0000000000000000e+00 2.9292802919432354e-01  6.0121073109276342e+00 0.0000000000000000e+00 2.7697758645927356e-01  6.1049040689585068e+00 0.0000000000000000e+00 2.6534170350966957e-01  6.2000087933746872e+00 0.0000000000000000e+00 2.4839456565265283e-01  6.2943947070020663e+00 0.0000000000000000e+00 2.3280446538936492e-01  6.3872796655950248e+00 0.0000000000000000e+00 2.1711634236379465e-01  6.4817755443127432e+00 0.0000000000000000e+00 1.9896217065063157e-01  6.5748895498000133e+00 0.0000000000000000e+00 1.8179546261819704e-01  6.6682473486533871e+00 0.0000000000000000e+00 1.6605624301425875e-01  6.7618477330195983e+00 0.0000000000000000e+00 1.4744686895627318e-01  6.8566711779840839e+00 0.0000000000000000e+00 1.2725843856010724e-01  6.9506379343287854e+00 0.0000000000000000e+00 1.0929141958146943e-01  7.0447420191460193e+00 0.0000000000000000e+00 9.1846159474127442e-02  7.1374153026824327e+00 0.0000000000000000e+00 7.4266208491360841e-02  7.2320151075303647e+00 0.0000000000000000e+00 5.4897375112708389e-02  7.3251051617400353e+00 0.0000000000000000e+00 3.7278395405156241e-02  7.4202995608460913e+00 0.0000000000000000e+00 1.4565740391202073e-02  7.5135824432754834e+00 0.0000000000000000e+00 -4.4821937654648545e-03  7.6066399853043469e+00 0.0000000000000000e+00 -2.2886259368082675e-02  7.7019364768307375e+00 0.0000000000000000e+00 -4.3860717539381047e-02  7.7962205061887593e+00 0.0000000000000000e+00 -6.5049999822688831e-02  7.8883604172417190e+00 0.0000000000000000e+00 -8.2065565413274186e-02  7.9830969691941744e+00 0.0000000000000000e+00 -1.0488371575145242e-01  8.0758802086091297e+00 0.0000000000000000e+00 -1.2355592943853215e-01  8.1691017391688856e+00 0.0000000000000000e+00 -1.4163229619882145e-01  8.2629743772748689e+00 0.0000000000000000e+00 -1.6325469729874972e-01  8.3569592746029109e+00 0.0000000000000000e+00 -1.8527761365115314e-01  8.4495460494643684e+00 0.0000000000000000e+00 -2.0230485876665152e-01  8.5443826744444227e+00 0.0000000000000000e+00 -2.2381039219982382e-01  8.6368047004675041e+00 0.0000000000000000e+00 -2.3915959351452179e-01  8.7314300403699967e+00 0.0000000000000000e+00 -2.5661831576587868e-01  8.8259250833485048e+00 0.0000000000000000e+00 -2.6527258840288942e-01  8.9231731686862439e+00 0.0000000000000000e+00 -2.7134502065969390e-01  9.0265794001971003e+00 0.0000000000000000e+00 -2.7135365254357263e-01  9.1372345098872003e+00 0.0000000000000000e+00 -2.6828783445509830e-01  9.2565859623718723e+00 0.0000000000000000e+00 -2.7570967474443192e-01  9.3830727909792078e+00 0.0000000000000000e+00 -2.9625091508127910e-01  9.4878971675659578e+00 2.6982638002664933e-01 -3.4806949504014700e-01  9.4518077083687793e+00 5.1125372036135708e-01 -4.4420041284987061e-01  9.3998075729942112e+00 7.1539449782989784e-01 -5.8069879943544467e-01  9.3370650520960332e+00 8.6981534127115612e-01 -7.4701037556455152e-01  9.2686557162019660e+00 9.8411716540371141e-01 -9.2858853561344734e-01  9.1942805003969728e+00 1.0569124713623501e+00 -1.1156874189565662e+00  9.0351399887842803e+00 1.0813157378145553e+00 -1.2703701242024346e+00  8.9452707516677563e+00 1.0711010441803066e+00 -1.2349029641071685e+00  8.8564781673310087e+00 1.0627881239533130e+00 -1.2006328760769969e+00  8.7675356090163543e+00 1.0533704664312962e+00 -1.1653093207776204e+00  8.6801052677384352e+00 1.0457405154374622e+00 -1.1342517545761093e+00  8.5935421966856538e+00 1.0411087844414850e+00 -1.1048791315557700e+00  8.5072699520994757e+00 1.0371445857747050e+00 -1.0757189731913159e+00  8.4207434872618396e+00 1.0352764146744089e+00 -1.0475346137648542e+00  8.3334754840076730e+00 1.0333589733465363e+00 -1.0188808146526711e+00  8.2465167969294129e+00 1.0320727023230321e+00 -9.9189884338004952e-01  8.1586544691096101e+00 1.0314417296140463e+00 -9.6478426025220654e-01  8.0704456609733697e+00 1.0325445758612619e+00 -9.4013072675344833e-01  7.9815854793811098e+00 1.0320922524927354e+00 -9.1522882485957191e-01  7.8923468914432924e+00 1.0316889056349843e+00 -8.9113007020718837e-01  7.8032227035040282e+00 1.0325360219066020e+00 -8.6916554897139775e-01  7.7127467607833102e+00 1.0323938110242439e+00 -8.4620533294809075e-01  7.6231205368070993e+00 1.0332349011409399e+00 -8.2314811387251197e-01  7.5328808370872924e+00 1.0345510061923882e+00 -8.0124053573842013e-01  7.4427185088118328e+00 1.0350885128879488e+00 -7.8010744416750011e-01  7.3521101582194568e+00 1.0363313067779143e+00 -7.5896630976406121e-01  7.2613600321906731e+00 1.0370729663878591e+00 -7.3800666247213198e-01  7.1703347484103617e+00 1.0374519502466975e+00 -7.1718936194322003e-01  7.0790520080146448e+00 1.0383228961987379e+00 -6.9752734598944810e-01  6.9878303966650996e+00 1.0373635881830281e+00 -6.7817911862592650e-01  6.8965724254926579e+00 1.0380608753504232e+00 -6.5991666649087921e-01  6.8051993079860740e+00 1.0384715323772720e+00 -6.4165002175056784e-01  6.7135509953983288e+00 1.0387730234302073e+00 -6.2372354596062574e-01  6.6218875331155047e+00 1.0386396432351745e+00 -6.0603536776635536e-01  6.5301897108950637e+00 1.0393558412306090e+00 -5.8900433486664805e-01  6.4384481974130852e+00 1.0389321234668230e+00 -5.7152388118827124e-01  6.3466105861363227e+00 1.0391807316036981e+00 -5.5471920051583334e-01  6.2548090431173478e+00 1.0397854728123350e+00 -5.3843124183735702e-01  6.1629961957272830e+00 1.0390429414760016e+00 -5.2212001807927999e-01  6.0710535064529880e+00 1.0385673351027596e+00 -5.0619985269751522e-01  5.9792725625819223e+00 1.0383896463700468e+00 -4.9065541690247860e-01  5.8874518533552926e+00 1.0380232286431226e+00 -4.7512134406471795e-01  5.7957458316697252e+00 1.0377123071568606e+00 -4.5972060765477157e-01  5.7038865539182106e+00 1.0385540831329494e+00 -4.4466488793406611e-01  5.6120006232190685e+00 1.0392507427090261e+00 -4.3015093467943338e-01  5.5202027790089252e+00 1.0382351900188638e+00 -4.1550947220539081e-01  5.4283021940423666e+00 1.0379901823188131e+00 -4.0127550088152192e-01  5.3364402565692917e+00 1.0384922655088558e+00 -3.8753460080600560e-01  5.2447613415221159e+00 1.0375786098186983e+00 -3.7334189195617828e-01  5.1528869583792316e+00 1.0379664380586251e+00 -3.5975166498189209e-01  5.0610211699050529e+00 1.0383909914295828e+00 -3.4659603772592340e-01  4.9692006484227615e+00 1.0381538917602577e+00 -3.3321433801682299e-01  4.8776200376123775e+00 1.0381938497223593e+00 -3.2035811139283499e-01  4.7857852163466905e+00 1.0386788229994706e+00 -3.0789930474356986e-01  4.6939227717028329e+00 1.0381244788895199e+00 -2.9490404760177336e-01  4.6018245798116704e+00 1.0384547431600233e+00 -2.8212113044086362e-01  4.5099253065801239e+00 1.0387903822854077e+00 -2.7065638154567939e-01  4.4177634757729214e+00 1.0392083775984375e+00 -2.5983018784253836e-01  4.3255638875876024e+00 1.0381421465907843e+00 -2.4872205596865526e-01  4.2340824256538836e+00 1.0387467835577018e+00 -2.3741423241739576e-01  4.1422900248316079e+00 1.0387518311720148e+00 -2.2726038809281923e-01  4.0502429349458238e+00 1.0387986928498081e+00 -2.1664601338561773e-01  3.9582468471849057e+00 1.0382875960027884e+00 -2.0591820046722215e-01  3.8662614005914224e+00 1.0389031749572322e+00 -1.9609666213722354e-01  3.7744841079152538e+00 1.0387232612052659e+00 -1.8674450174081483e-01  3.6828181393927055e+00 1.0387533423810460e+00 -1.7771097766618571e-01  3.5907533339753415e+00 1.0395165596190219e+00 -1.6906644857287154e-01  3.4988040162226741e+00 1.0387190848178824e+00 -1.6026891649481784e-01  3.4065942314776199e+00 1.0384296401487465e+00 -1.5169740533122902e-01  3.3145620046476405e+00 1.0387557650886610e+00 -1.4384951571012730e-01  3.2225016828148831e+00 1.0383176934851912e+00 -1.3568210563429017e-01  3.1304136672593987e+00 1.0369286676311262e+00 -1.2732952872612036e-01  3.0384946673217530e+00 1.0371911713658946e+00 -1.2071950853312360e-01  2.9464908943941097e+00 1.0366794323162769e+00 -1.1355007999335684e-01  2.8545836548335428e+00 1.0370640091941283e+00 -1.0645484522225261e-01  2.7627208092155162e+00 1.0371254725508021e+00 -9.9263153912453148e-02  2.6706281782092383e+00 1.0371783599349431e+00 -9.2100250943296644e-02  2.5784395414740913e+00 1.0371908048736775e+00 -8.5373545231273704e-02  2.4863731273018783e+00 1.0375891899346483e+00 -7.9370369277620811e-02  2.3943658571908530e+00 1.0376426338237426e+00 -7.3243736634449552e-02  2.3022987965341701e+00 1.0377452560939591e+00 -6.7205074342470986e-02  2.2103709966331850e+00 1.0372682135182607e+00 -6.1296964259873979e-02  2.1184919405838540e+00 1.0372294281094341e+00 -5.6178175719927829e-02  2.0266157653600754e+00 1.0377820760873759e+00 -5.1258619722255601e-02  1.9344288904180542e+00 1.0377824336476025e+00 -4.6394074042993977e-02  1.8422031272665305e+00 1.0373438506990993e+00 -4.1066154480949350e-02  1.7501307110788127e+00 1.0380443297813851e+00 -3.6756534210028169e-02  1.6578662736535206e+00 1.0384418460958760e+00 -3.2386232005140334e-02  1.5657259444484994e+00 1.0373544802144290e+00 -2.7723499696588813e-02  1.4735967646170163e+00 1.0375077736348683e+00 -2.4341439252653391e-02  1.3816761106892868e+00 1.0373158871268291e+00 -2.1235660627274874e-02  1.2896926769682904e+00 1.0374811693367680e+00 -1.7990907914355373e-02  1.1976844429304903e+00 1.0371794678146808e+00 -1.4316802346395785e-02  1.1056649460607926e+00 1.0379681161001799e+00 -1.1991708159567393e-02  1.0136000622819230e+00 1.0381515074908019e+00 -9.5685572928880178e-03  9.2146754331865111e-01 1.0380875467745043e+00 -7.2423119459749793e-03  8.2918828605188089e-01 1.0377645063862388e+00 -5.3386751271618706e-03  7.3705029644955844e-01 1.0375266518788546e+00 -3.9434193256592661e-03  6.4478205969665503e-01 1.0374578210464398e+00 -2.7151731994091836e-03  5.5240747518912969e-01 1.0369458883429410e+00 -1.1988360260487248e-03  4.6031734552444459e-01 1.0364464441087262e+00 -3.8742354905944474e-04  3.6816406081977437e-01 1.0366689170528607e+00 -4.5865394997152045e-04  2.7604533405832271e-01 1.0354559800214544e+00 -9.7114539773685674e-05  1.8396121163392395e-01 1.0351426072630152e+00 0.0000000000000000e+00  9.1928848931037144e-02 1.0341586159305649e+00 0.0000000000000000e+00  9.1447292708614771e+00 9.2343349762742755e-01 -1.2735146257732404e+00  9.1622038296587309e+00 7.4532534606128986e-01 -1.2529644007839691e+00  9.1822675323922684e+00 5.6967067036819163e-01 -1.2367511254022594e+00  9.1911627990565812e+00 3.7705078017013727e-01 -1.2295097459761539e+00  9.2039530859914187e+00 1.8644339953056777e-01 -1.2195607791377927e+00  9.1232131011391591e+00 0.0000000000000000e+00 -1.1792811244714057e+00  9.0327325530839300e+00 0.0000000000000000e+00 -1.1510375092532281e+00  8.9404189730567918e+00 0.0000000000000000e+00 -1.1187715007692070e+00  8.8468920088245451e+00 0.0000000000000000e+00 -1.0921473786782834e+00  8.7546061771369441e+00 0.0000000000000000e+00 -1.0702849385721458e+00  8.6608342967644791e+00 0.0000000000000000e+00 -1.0455116203686128e+00  8.5687019589236932e+00 0.0000000000000000e+00 -1.0250136795878204e+00  8.4747891008705061e+00 0.0000000000000000e+00 -1.0050951365456355e+00  8.3803626948274914e+00 0.0000000000000000e+00 -9.8077580358984273e-01  8.2871369288622621e+00 0.0000000000000000e+00 -9.6430338857800635e-01  8.1936832521959886e+00 0.0000000000000000e+00 -9.4545861046692192e-01  8.1009810498784063e+00 0.0000000000000000e+00 -9.2408199586840145e-01  8.0080927360742056e+00 0.0000000000000000e+00 -9.0203193019196315e-01  7.9142917238404458e+00 0.0000000000000000e+00 -8.8018083027106886e-01  7.8219102748509259e+00 0.0000000000000000e+00 -8.6381835381748129e-01  7.7299893308265180e+00 0.0000000000000000e+00 -8.4502270469197516e-01  7.6381074831455624e+00 0.0000000000000000e+00 -8.2416786358863070e-01  7.5446052947402515e+00 0.0000000000000000e+00 -8.0238804517989404e-01  7.4514972510487141e+00 0.0000000000000000e+00 -7.8746838138292430e-01  7.3595705040735933e+00 0.0000000000000000e+00 -7.6685876912396278e-01  7.2669638591876238e+00 0.0000000000000000e+00 -7.4608648918727039e-01  7.1757895838640806e+00 0.0000000000000000e+00 -7.2934969543718309e-01  7.0833931650543605e+00 0.0000000000000000e+00 -7.0804275022158492e-01  6.9907544986689372e+00 0.0000000000000000e+00 -6.9167719199655420e-01  6.8995816902636733e+00 0.0000000000000000e+00 -6.7335822809205503e-01  6.8077867820577005e+00 0.0000000000000000e+00 -6.5371672176303974e-01  6.7151449146692697e+00 0.0000000000000000e+00 -6.3473312052466391e-01  6.6228105151944430e+00 0.0000000000000000e+00 -6.2001135128617813e-01  6.5306708976335788e+00 0.0000000000000000e+00 -6.0169595424317590e-01  6.4385403182250993e+00 0.0000000000000000e+00 -5.8651186405167699e-01  6.3478185905450566e+00 0.0000000000000000e+00 -5.7106708768410841e-01  6.2563189998911444e+00 0.0000000000000000e+00 -5.5354894444773450e-01  6.1641037614391214e+00 0.0000000000000000e+00 -5.3332526593513174e-01  6.0716654227222122e+00 0.0000000000000000e+00 -5.1938107198872530e-01  5.9791422796781983e+00 0.0000000000000000e+00 -5.0040794386605159e-01  5.8880237085923515e+00 0.0000000000000000e+00 -4.8854472696225271e-01  5.7959037402468629e+00 0.0000000000000000e+00 -4.7140285483823907e-01  5.7027677650410720e+00 0.0000000000000000e+00 -4.5479817411890250e-01  5.6106648110259645e+00 0.0000000000000000e+00 -4.4184181051506305e-01  5.5192618083378555e+00 0.0000000000000000e+00 -4.2502075614394946e-01  5.4283256012830039e+00 0.0000000000000000e+00 -4.1372446362845600e-01  5.3374092455019735e+00 0.0000000000000000e+00 -3.9786442478211564e-01  5.2449072303380264e+00 0.0000000000000000e+00 -3.8210812072474576e-01  5.1542173240212747e+00 0.0000000000000000e+00 -3.7239060164158705e-01  5.0629297610325166e+00 0.0000000000000000e+00 -3.5887469347821133e-01  4.9705725340306834e+00 0.0000000000000000e+00 -3.4244527591787283e-01  4.8788128159376152e+00 0.0000000000000000e+00 -3.3231244192726078e-01  4.7864202579525994e+00 0.0000000000000000e+00 -3.1878172066469074e-01  4.6937427488943664e+00 0.0000000000000000e+00 -3.0878206585286211e-01  4.6023053431252405e+00 0.0000000000000000e+00 -2.9664392943570633e-01  4.5104890799926327e+00 0.0000000000000000e+00 -2.8595097175676620e-01  4.4181283077023501e+00 0.0000000000000000e+00 -2.7194714559858535e-01  4.3268682238036122e+00 0.00