<?xml version="1.0"?>
<VTKFile type="UnstructuredGrid"  version="0.1"  >
<UnstructuredGrid>
<Piece  NumberOfPoints="3069" NumberOfCells="12882">
<Points>
<DataArray  type="Float64"  NumberOfComponents="3"  format="ascii">0 0 0  0 0 4  0 5.65685415 0  50 0 4  50 5.65685415 0  50 0 0  0 0 1  0 0 2  0 0 3  0 1.04967844 3.90746784  0 2.0669806 3.632725  0 3.02052855 3.18424606  0 3.88091111 2.5758636  0 4.62159061 1.82634306  0 5.21972132 0.958802283  0 4.71404505 0  0 3.77123618 0  0 2.82842708 0  0 1.88561809 0  0 0.942809045 0  0.5 0 4  1 0 4  1.5 0 4  2 0 4  2.5 0 4  3 0 4  3.5 0 4  4 0 4  4.5 0 4  5 0 4  5.5 0 4  6 0 4  6.5 0 4  7 0 4  7.5 0 4  8 0 4  8.5 0 4  9 0 4  9.5 0 4  10 0 4  10.5 0 4  11 0 4  11.5 0 4  12 0 4  12.5 0 4  13 0 4  13.5 0 4  14 0 4  14.5 0 4  15 0 4  15.5 0 4  16 0 4  16.5 0 4  17 0 4  17.5 0 4  18 0 4  18.5 0 4  19 0 4  19.5 0 4  20 0 4  20.5 0 4  21 0 4  21.5 0 4  22 0 4  22.5 0 4  23 0 4  23.5 0 4  24 0 4  24.5 0 4  25 0 4  25.5 0 4  26 0 4  26.5 0 4  27 0 4  27.5 0 4  28 0 4  28.5 0 4  29 0 4  29.5 0 4  30 0 4  30.5 0 4  31 0 4  31.5 0 4  32 0 4  32.5 0 4  33 0 4  33.5 0 4  34 0 4  34.5 0 4  35 0 4  35.5 0 4  36 0 4  36.5 0 4  37 0 4  37.5 0 4  38 0 4  38.5 0 4  39 0 4  39.5 0 4  40 0 4  40.5 0 4  41 0 4  41.5 0 4  42 0 4  42.5 0 4  43 0 4  43.5 0 4  44 0 4  44.5 0 4  45 0 4  45.5 0 4  46 0 4  46.5 0 4  47 0 4  47.5 0 4  48 0 4  48.5 0 4  49 0 4  49.5 0 4  50 1.04967844 3.90746784  50 2.0669806 3.632725  50 3.02052855 3.18424606  50 3.88091111 2.5758636  50 4.62159061 1.82634306  50 5.21972132 0.958802283  49.5 5.65685415 0  49 5.65685415 0  48.5 5.65685415 0  48 5.65685415 0  47.5 5.65685415 0  47 5.65685415 0  46.5 5.65685415 0  46 5.65685415 0  45.5 5.65685415 0  45 5.65685415 0  44.5 5.65685415 0  44 5.65685415 0  43.5 5.65685415 0  43 5.65685415 0  42.5 5.65685415 0  42 5.65685415 0  41.5 5.65685415 0  41 5.65685415 0  40.5 5.65685415 0  40 5.65685415 0  39.5 5.65685415 0  39 5.65685415 0  38.5 5.65685415 0  38 5.65685415 0  37.5 5.65685415 0  37 5.65685415 0  36.5 5.65685415 0  36 5.65685415 0  35.5 5.65685415 0  35 5.65685415 0  34.5 5.65685415 0  34 5.65685415 0  33.5 5.65685415 0  33 5.65685415 0  32.5 5.65685415 0  32 5.65685415 0  31.5 5.65685415 0  31 5.65685415 0  30.5 5.65685415 0  30 5.65685415 0  29.5 5.65685415 0  29 5.65685415 0  28.5 5.65685415 0  28 5.65685415 0  27.5 5.65685415 0  27 5.65685415 0  26.5 5.65685415 0  26 5.65685415 0  25.5 5.65685415 0  25 5.65685415 0  24.5 5.65685415 0  24 5.65685415 0  23.5 5.65685415 0  23 5.65685415 0  22.5 5.65685415 0  22 5.65685415 0  21.5 5.65685415 0  21 5.65685415 0  20.5 5.65685415 0  20 5.65685415 0  19.5 5.65685415 0  19 5.65685415 0  18.5 5.65685415 0  18 5.65685415 0  17.5 5.65685415 0  17 5.65685415 0  16.5 5.65685415 0  16 5.65685415 0  15.5 5.65685415 0  15 5.65685415 0  14.5 5.65685415 0  14 5.65685415 0  13.5 5.65685415 0  13 5.65685415 0  12.5 5.65685415 0  12 5.65685415 0  11.5 5.65685415 0  11 5.65685415 0  10.5 5.65685415 0  10 5.65685415 0  9.5 5.65685415 0  9 5.65685415 0  8.5 5.65685415 0  8 5.65685415 0  7.5 5.65685415 0  7 5.65685415 0  6.5 5.65685415 0  6 5.65685415 0  5.5 5.65685415 0  5 5.65685415 0  4.5 5.65685415 0  4 5.65685415 0  3.5 5.65685415 0  3 5.65685415 0  2.5 5.65685415 0  2 5.65685415 0  1.5 5.65685415 0  1 5.65685415 0  0.5 5.65685415 0  50 4.71404505 0  50 3.77123618 0  50 2.82842708 0  50 1.88561809 0  50 0.942809045 0  49.5 0 0  49 0 0  48.5 0 0  48 0 0  47.5 0 0  47 0 0  46.5 0 0  46 0 0  45.5 0 0  45 0 0  44.5 0 0  44 0 0  43.5 0 0  43 0 0  42.5 0 0  42 0 0  41.5 0 0  41 0 0  40.5 0 0  40 0 0  39.5 0 0  39 0 0  38.5 0 0  38 0 0  37.5 0 0  37 0 0  36.5 0 0  36 0 0  35.5 0 0  35 0 0  34.5 0 0  34 0 0  33.5 0 0  33 0 0  32.5 0 0  32 0 0  31.5 0 0  31 0 0  30.5 0 0  30 0 0  29.5 0 0  29 0 0  28.5 0 0  28 0 0  27.5 0 0  27 0 0  26.5 0 0  26 0 0  25.5 0 0  25 0 0  24.5 0 0  24 0 0  23.5 0 0  23 0 0  22.5 0 0  22 0 0  21.5 0 0  21 0 0  20.5 0 0  20 0 0  19.5 0 0  19 0 0  18.5 0 0  18 0 0  17.5 0 0  17 0 0  16.5 0 0  16 0 0  15.5 0 0  15 0 0  14.5 0 0  14 0 0  13.5 0 0  13 0 0  12.5 0 0  12 0 0  11.5 0 0  11 0 0  10.5 0 0  10 0 0  9.5 0 0  9 0 0  8.5 0 0  8 0 0  7.5 0 0  7 0 0  6.5 0 0  6 0 0  5.5 0 0  5 0 0  4.5 0 0  4 0 0  3.5 0 0  3 0 0  2.5 0 0  2 0 0  1.5 0 0  1 0 0  0.5 0 0  50 0 1  50 0 2  50 0 3  0 2.33524275 0.893602192  0 2.87561393 1.93323028  0 4.2367816 0.876864135  0 2.00050235 2.65534091  0 0.981494486 2.34323239  0 3.78543234 1.61830366  0 3.30545568 0.887000024  0 0.812916458 1.58408713  0 1.71948838 1.71268857  0 1.28267908 0.8650629520000001  0 1.21973121 3.10775328  0.5 5.21972132 0.958802223  0.5 4.62159061 1.82634306  0.5 3.88091111 2.5758636  0.5 3.02052855 3.18424606  0.5 2.0669806 3.632725  0.5 1.04967844 3.90746784  1 5.21972132 0.958802223  1 4.62159061 1.82634306  1 3.88091111 2.5758636  1 3.02052855 3.18424606  1 2.0669806 3.632725  1 1.04967844 3.90746784  1.5 5.21972132 0.958802223  1.5 4.62159061 1.82634306  1.5 3.88091111 2.5758636  1.5 3.02052855 3.18424606  1.5 2.0669806 3.632725  1.5 1.04967844 3.90746784  2 5.21972132 0.958802223  2 4.62159061 1.82634306  2 3.88091111 2.5758636  2 3.02052855 3.18424606  2 2.0669806 3.632725  2 1.04967844 3.90746784  2.5 5.21972132 0.958802223  2.5 4.62159061 1.82634306  2.5 3.88091111 2.5758636  2.5 3.02052855 3.18424606  2.5 2.0669806 3.632725  2.5 1.04967844 3.90746784  3 5.21972132 0.958802223  3 4.62159061 1.82634306  3 3.88091111 2.5758636  3 3.02052855 3.18424606  3 2.0669806 3.632725  3 1.04967844 3.90746784  3.5 5.21972132 0.958802223  3.5 4.62159061 1.82634306  3.5 3.88091111 2.5758636  3.5 3.02052855 3.18424606  3.5 2.0669806 3.632725  3.5 1.04967844 3.90746784  4 5.21972132 0.958802223  4 4.62159061 1.82634306  4 3.88091111 2.5758636  4 3.02052855 3.18424606  4 2.0669806 3.632725  4 1.04967844 3.90746784  4.5 5.21972132 0.958802223  4.5 4.62159061 1.82634306  4.5 3.88091111 2.5758636  4.5 3.02052855 3.18424606  4.5 2.0669806 3.632725  4.5 1.04967844 3.90746784  5 5.21972132 0.958802223  5 4.62159061 1.82634306  5 3.88091111 2.5758636  5 3.02052855 3.18424606  5 2.0669806 3.632725  5 1.04967844 3.90746784  5.5 5.21972132 0.958802223  5.5 4.62159061 1.82634306  5.5 3.88091111 2.5758636  5.5 3.02052855 3.18424606  5.5 2.0669806 3.632725  5.5 1.04967844 3.90746784  6 5.21972132 0.958802223  6 4.62159061 1.82634306  6 3.88091111 2.5758636  6 3.02052855 3.18424606  6 2.0669806 3.632725  6 1.04967844 3.90746784  6.5 5.21972132 0.958802223  6.5 4.62159061 1.82634306  6.5 3.88091111 2.5758636  6.5 3.02052855 3.18424606  6.5 2.0669806 3.632725  6.5 1.04967844 3.90746784  7 5.21972132 0.958802223  7 4.62159061 1.82634306  7 3.88091111 2.5758636  7 3.02052855 3.18424606  7 2.0669806 3.632725  7 1.04967844 3.90746784  7.5 5.21972132 0.958802223  7.5 4.62159061 1.82634306  7.5 3.88091111 2.5758636  7.5 3.02052855 3.18424606  7.5 2.0669806 3.632725  7.5 1.04967844 3.90746784  8 5.21972132 0.958802223  8 4.62159061 1.82634306  8 3.88091111 2.5758636  8 3.02052855 3.18424606  8 2.0669806 3.632725  8 1.04967844 3.90746784  8.5 5.21972132 0.958802223  8.5 4.62159061 1.82634306  8.5 3.88091111 2.5758636  8.5 3.02052855 3.18424606  8.5 2.0669806 3.632725  8.5 1.04967844 3.90746784  9 5.21972132 0.958802223  9 4.62159061 1.82634306  9 3.88091111 2.5758636  9 3.02052855 3.18424606  9 2.0669806 3.632725  9 1.04967844 3.90746784  9.5 5.21972132 0.958802223  9.5 4.62159061 1.82634306  9.5 3.88091111 2.5758636  9.5 3.02052855 3.18424606  9.5 2.0669806 3.632725  9.5 1.04967844 3.90746784  10 5.21972132 0.958802223  10 4.62159061 1.82634306  10 3.88091111 2.5758636  10 3.02052855 3.18424606  10 2.0669806 3.632725  10 1.04967844 3.90746784  10.5 5.21972132 0.958802223  10.5 4.62159061 1.82634306  10.5 3.88091111 2.5758636  10.5 3.02052855 3.18424606  10.5 2.0669806 3.632725  10.5 1.04967844 3.90746784  11 5.21972132 0.958802223  11 4.62159061 1.82634306  11 3.88091111 2.5758636  11 3.02052855 3.18424606  11 2.0669806 3.632725  11 1.04967844 3.90746784  11.5 5.21972132 0.958802223  11.5 4.62159061 1.82634306  11.5 3.88091111 2.5758636  11.5 3.02052855 3.18424606  11.5 2.0669806 3.632725  11.5 1.04967844 3.90746784  12 5.21972132 0.958802223  12 4.62159061 1.82634306  12 3.88091111 2.5758636  12 3.02052855 3.18424606  12 2.0669806 3.632725  12 1.04967844 3.90746784  12.5 5.21972132 0.958802223  12.5 4.62159061 1.82634306  12.5 3.88091111 2.5758636  12.5 3.02052855 3.18424606  12.5 2.0669806 3.632725  12.5 1.04967844 3.90746784  13 5.21972132 0.958802223  13 4.62159061 1.82634306  13 3.88091111 2.5758636  13 3.02052855 3.18424606  13 2.0669806 3.632725  13 1.04967844 3.90746784  13.5 5.21972132 0.958802223  13.5 4.62159061 1.82634306  13.5 3.88091111 2.5758636  13.5 3.02052855 3.18424606  13.5 2.0669806 3.632725  13.5 1.04967844 3.90746784  14 5.21972132 0.958802223  14 4.62159061 1.82634306  14 3.88091111 2.5758636  14 3.02052855 3.18424606  14 2.0669806 3.632725  14 1.04967844 3.90746784  14.5 5.21972132 0.958802223  14.5 4.62159061 1.82634306  14.5 3.88091111 2.5758636  14.5 3.02052855 3.18424606  14.5 2.0669806 3.632725  14.5 1.04967844 3.90746784  15 5.21972132 0.958802223  15 4.62159061 1.82634306  15 3.88091111 2.5758636  15 3.02052855 3.18424606  15 2.0669806 3.632725  15 1.04967844 3.90746784  15.5 5.21972132 0.958802223  15.5 4.62159061 1.82634306  15.5 3.88091111 2.5758636  15.5 3.02052855 3.18424606  15.5 2.0669806 3.632725  15.5 1.04967844 3.90746784  16 5.21972132 0.958802223  16 4.62159061 1.82634306  16 3.88091111 2.5758636  16 3.02052855 3.18424606  16 2.0669806 3.632725  16 1.04967844 3.90746784  16.5 5.21972132 0.958802223  16.5 4.62159061 1.82634306  16.5 3.88091111 2.5758636  16.5 3.02052855 3.18424606  16.5 2.0669806 3.632725  16.5 1.04967844 3.90746784  17 5.21972132 0.958802223  17 4.62159061 1.82634306  17 3.88091111 2.5758636  17 3.02052855 3.18424606  17 2.0669806 3.632725  17 1.04967844 3.90746784  17.5 5.21972132 0.958802223  17.5 4.62159061 1.82634306  17.5 3.88091111 2.5758636  17.5 3.02052855 3.18424606  17.
[...]
<PointData  Vectors="f_261141-0"> 
<DataArray  type="Float64"  Name="f_261141-0"  NumberOfComponents="3" format="ascii">0.0000000000000000e+00 0.0000000000000000e+00 0.0000000000000000e+00  0.0000000000000000e+00 0.0000000000000000e+00 8.4882128336500362e-01  0.0000000000000000e+00 1.0655420230860668e+00 0.0000000000000000e+00  1.0254285248570747e+01 0.0000000000000000e+00 -2.8819089925273893e+00  9.3984553114316025e+00 1.1364234110605189e+00 -3.8941801190175513e+00  9.5177618686778072e+00 0.0000000000000000e+00 -3.7695434491131770e+00  0.0000000000000000e+00 0.0000000000000000e+00 1.6718160334227261e-01  0.0000000000000000e+00 0.0000000000000000e+00 4.0686170991625109e-01  0.0000000000000000e+00 0.0000000000000000e+00 6.7240857887746897e-01  0.0000000000000000e+00 2.5846702335116523e-01 8.0772169754880652e-01  0.0000000000000000e+00 4.4850025653716630e-01 7.0890549305096062e-01  0.0000000000000000e+00 6.3169340566236476e-01 6.1007490566678990e-01  0.0000000000000000e+00 7.8731786713269725e-01 4.8408781654347421e-01  0.0000000000000000e+00 9.1221388241044110e-01 3.2453827344433533e-01  0.0000000000000000e+00 1.0067038304687708e+00 1.6789492425444041e-01  0.0000000000000000e+00 9.0612258929641865e-01 0.0000000000000000e+00  0.0000000000000000e+00 7.3991763961670798e-01 0.0000000000000000e+00  0.0000000000000000e+00 5.7172786033956591e-01 0.0000000000000000e+00  0.0000000000000000e+00 3.9618760903825406e-01 0.0000000000000000e+00  0.0000000000000000e+00 2.0462851724601530e-01 0.0000000000000000e+00  1.0073239791425934e-01 0.0000000000000000e+00 8.5144811064917214e-01  2.0413653191648512e-01 0.0000000000000000e+00 8.5133264924840280e-01  3.0755248618955217e-01 0.0000000000000000e+00 8.5090202837691709e-01  4.1331812548345559e-01 0.0000000000000000e+00 8.4632560415179836e-01  5.1018457647776116e-01 0.0000000000000000e+00 8.5589586718794464e-01  6.1821077263269852e-01 0.0000000000000000e+00 8.4432327158712217e-01  7.1722166364004869e-01 0.0000000000000000e+00 8.4105531785540122e-01  8.2472586668838832e-01 0.0000000000000000e+00 8.2722792467879358e-01  9.2786389512922351e-01 0.0000000000000000e+00 8.1577545615775193e-01  1.0296786155440043e+00 0.0000000000000000e+00 8.0282127858528618e-01  1.1302003005142820e+00 0.0000000000000000e+00 7.9657703304715499e-01  1.2325168587607713e+00 0.0000000000000000e+00 7.9697090320467656e-01  1.3351911222911026e+00 0.0000000000000000e+00 7.9109556199021824e-01  1.4445961789331014e+00 0.0000000000000000e+00 7.6883651592960256e-01  1.5437522370451009e+00 0.0000000000000000e+00 7.6168127394787999e-01  1.6517488564280407e+00 0.0000000000000000e+00 7.4843520099516336e-01  1.7546930088979455e+00 0.0000000000000000e+00 7.3693340520345130e-01  1.8581418308605619e+00 0.0000000000000000e+00 7.2074106121648873e-01  1.9583498545390554e+00 0.0000000000000000e+00 7.1269026471147356e-01  2.0591331017803705e+00 0.0000000000000000e+00 7.0158024778418715e-01  2.1607028716632071e+00 0.0000000000000000e+00 6.9649460656041651e-01  2.2617012544188109e+00 0.0000000000000000e+00 6.7308890925404641e-01  2.3654657667013343e+00 0.0000000000000000e+00 6.6132590249780643e-01  2.4693985522413211e+00 0.0000000000000000e+00 6.4202029156995810e-01  2.5692733247785888e+00 0.0000000000000000e+00 6.3261724993150381e-01  2.6754960256018481e+00 0.0000000000000000e+00 6.0574319349427486e-01  2.7793934014798669e+00 0.0000000000000000e+00 5.8244302365087597e-01  2.8788675714875298e+00 0.0000000000000000e+00 5.6812459702627871e-01  2.9827673770268444e+00 0.0000000000000000e+00 5.4655075560370414e-01  3.0877567970408792e+00 0.0000000000000000e+00 5.1350078602387406e-01  3.1802188156396252e+00 0.0000000000000000e+00 5.1421922961251365e-01  3.2795977602310047e+00 0.0000000000000000e+00 4.8394991216096811e-01  3.3830310556035506e+00 0.0000000000000000e+00 4.5429216672855932e-01  3.4877317714858269e+00 0.0000000000000000e+00 4.2398959856022733e-01  3.5946797982535439e+00 0.0000000000000000e+00 3.9522257500340374e-01  3.6991731697798760e+00 0.0000000000000000e+00 3.7159395024616809e-01  3.8047163070148575e+00 0.0000000000000000e+00 3.4561344114980697e-01  3.9057592680267179e+00 0.0000000000000000e+00 3.2494838147450822e-01  4.0115098051755078e+00 0.0000000000000000e+00 2.8847239284157633e-01  4.1127400201051234e+00 0.0000000000000000e+00 2.6454635036398394e-01  4.2092938570830620e+00 0.0000000000000000e+00 2.4205598704791556e-01  4.3147807457563339e+00 0.0000000000000000e+00 2.1155176616790902e-01  4.4138579685468580e+00 0.0000000000000000e+00 1.8149295261951179e-01  4.5217757627611892e+00 0.0000000000000000e+00 1.3267129325170329e-01  4.6186615115045937e+00 0.0000000000000000e+00 1.0488071361707256e-01  4.7187647585006447e+00 0.0000000000000000e+00 6.9309916753188636e-02  4.8202929490063431e+00 0.0000000000000000e+00 4.2770868711380673e-02  4.9245406688454354e+00 0.0000000000000000e+00 6.2824699659447484e-03  5.0265667222847501e+00 0.0000000000000000e+00 -2.7099508353552817e-02  5.1300610754847256e+00 0.0000000000000000e+00 -6.4259820975131290e-02  5.2337618110350919e+00 0.0000000000000000e+00 -1.0787062734860602e-01  5.3331933198657699e+00 0.0000000000000000e+00 -1.3731810333379946e-01  5.4379648943147334e+00 0.0000000000000000e+00 -1.8573070300976771e-01  5.5366461776521438e+00 0.0000000000000000e+00 -2.1778549060079419e-01  5.6392374311439335e+00 0.0000000000000000e+00 -2.6249607633574229e-01  5.7460862892561764e+00 0.0000000000000000e+00 -3.0418771776907316e-01  5.8469815246175205e+00 0.0000000000000000e+00 -3.5024098656553077e-01  5.9455230476492504e+00 0.0000000000000000e+00 -3.8940928824314808e-01  6.0476963162546804e+00 0.0000000000000000e+00 -4.2797146971069344e-01  6.1524582340111120e+00 0.0000000000000000e+00 -4.8209912405603794e-01  6.2531189116998167e+00 0.0000000000000000e+00 -5.3674717037079700e-01  6.3516649493566169e+00 0.0000000000000000e+00 -5.7374288862113210e-01  6.4538495159161817e+00 0.0000000000000000e+00 -6.2504914226652064e-01  6.5561603190853432e+00 0.0000000000000000e+00 -6.7558844133642149e-01  6.6540489257979187e+00 0.0000000000000000e+00 -7.1063495651944208e-01  6.7593232124276508e+00 0.0000000000000000e+00 -7.6195496946546670e-01  6.8633767847561735e+00 0.0000000000000000e+00 -8.1327237199781510e-01  6.9614394596152342e+00 0.0000000000000000e+00 -8.6271510531757956e-01  7.0637258041061646e+00 0.0000000000000000e+00 -9.1992774773391883e-01  7.1617340711982767e+00 0.0000000000000000e+00 -9.7329611739661326e-01  7.2613059774605446e+00 0.0000000000000000e+00 -1.0235288894631256e+00  7.3608873096703986e+00 0.0000000000000000e+00 -1.0815772420184429e+00  7.4646357840399116e+00 0.0000000000000000e+00 -1.1473600199189276e+00  7.5658346301712101e+00 0.0000000000000000e+00 -1.2042738329811700e+00  7.6682163823737426e+00 0.0000000000000000e+00 -1.2591758186382365e+00  7.7658366792274034e+00 0.0000000000000000e+00 -1.3155846993064844e+00  7.8686606732238484e+00 0.0000000000000000e+00 -1.3763632108940111e+00  7.9669256537574862e+00 0.0000000000000000e+00 -1.4332401224580038e+00  8.0705402257914756e+00 0.0000000000000000e+00 -1.5055455461388840e+00  8.1690675200704153e+00 0.0000000000000000e+00 -1.5658719641228811e+00  8.2675100852687553e+00 0.0000000000000000e+00 -1.6250711711928683e+00  8.3735404403876537e+00 0.0000000000000000e+00 -1.6912940107976262e+00  8.4756961291599993e+00 0.0000000000000000e+00 -1.7588907941168543e+00  8.5723337287739216e+00 0.0000000000000000e+00 -1.8147244924188923e+00  8.6757102372827841e+00 0.0000000000000000e+00 -1.8883667045724930e+00  8.7733367600070675e+00 0.0000000000000000e+00 -1.9500156700172129e+00  8.8738448853323799e+00 0.0000000000000000e+00 -2.0135668560339042e+00  8.9742429872686511e+00 0.0000000000000000e+00 -2.0871470590083918e+00  9.0745653167837563e+00 0.0000000000000000e+00 -2.1652456517672181e+00  9.1714054540402028e+00 0.0000000000000000e+00 -2.2323213601886982e+00  9.2721898718749056e+00 0.0000000000000000e+00 -2.3093676475199310e+00  9.3690066456922079e+00 0.0000000000000000e+00 -2.3780840698229015e+00  9.4667737352206629e+00 0.0000000000000000e+00 -2.4464677539549791e+00  9.5632535696484098e+00 0.0000000000000000e+00 -2.5070580589975804e+00  9.6620584713269917e+00 0.0000000000000000e+00 -2.5663747791257845e+00  9.7683897877606931e+00 0.0000000000000000e+00 -2.6170671889587140e+00  9.8822038714543758e+00 0.0000000000000000e+00 -2.6634706330594158e+00  1.0003621906731816e+01 0.0000000000000000e+00 -2.7241765038320636e+00  1.0130301297731682e+01 0.0000000000000000e+00 -2.8013171073813465e+00  1.0217826750316130e+01 2.8455959459090252e-01 -2.9000552989525756e+00  1.0158757574200800e+01 5.4093233217582060e-01 -2.9925893571596696e+00  1.0059682126705869e+01 7.7353921351051425e-01 -3.1312362648224079e+00  9.9257060551745599e+00 9.5095380435454879e-01 -3.3071959225710037e+00  9.7638574244943612e+00 1.0694882510754382e+00 -3.5118703685731196e+00  9.5766660448181575e+00 1.1242769109745727e+00 -3.7099660587645791e+00  9.3133003060703601e+00 1.1209663044530556e+00 -3.8063906412189805e+00  9.2283994524804367e+00 1.1074071017147991e+00 -3.7144436580710969e+00  9.1448298294114121e+00 1.0970090259718415e+00 -3.6245288130117448e+00  9.0603994255651727e+00 1.0848494448603245e+00 -3.5323062756178838e+00  8.9778898522625248e+00 1.0758297054188883e+00 -3.4483545298678120e+00  8.8960737552690148e+00 1.0716131528278998e+00 -3.3679713555913366e+00  8.8142475767786195e+00 1.0662481937912804e+00 -3.2874001733771463e+00  8.7308792857978172e+00 1.0652655341926447e+00 -3.2080676272982536e+00  8.6465400256111415e+00 1.0643182612090685e+00 -3.1287568062026501e+00  8.5621138400626009e+00 1.0635298715868342e+00 -3.0515338784366697e+00  8.4759548457841039e+00 1.0644764314208033e+00 -2.9746814146014939e+00  8.3889581257618620e+00 1.0693523757132823e+00 -2.9024253351031062e+00  8.3008875906703636e+00 1.0695032996599059e+00 -2.8283954195026579e+00  8.2119098827670864e+00 1.0691704532788562e+00 -2.7571579243140185e+00  8.1229670364909747e+00 1.0727286502695317e+00 -2.6927848046408869e+00  8.0290476018892676e+00 1.0707263865946148e+00 -2.6253468720059088e+00  7.9399887602580170e+00 1.0725656416910094e+00 -2.5556684902096478e+00  7.8490713749213450e+00 1.0767088096752226e+00 -2.4886887703882024e+00  7.7587007518555291e+00 1.0783091186419789e+00 -2.4246089076640449e+00  7.6673278833289400e+00 1.0815255157243353e+00 -2.3596170454428620e+00  7.5756147982723538e+00 1.0837751371745130e+00 -2.2947187257551742e+00  7.4831530196632148e+00 1.0841652479257913e+00 -2.2297977375783455e+00  7.3897916862957294e+00 1.0867971122591611e+00 -2.1691466835883770e+00  7.2968108147288087e+00 1.0823090738369947e+00 -2.1093305996686089e+00  7.2037533833374416e+00 1.0840134944740454e+00 -2.0534077369458208e+00  7.1103497012941412e+00 1.0849336436381445e+00 -1.9971384992534285e+00  7.0159333033934024e+00 1.0854709036205912e+00 -1.9417664171527316e+00  6.9215719955628261e+00 1.0847280206184737e+00 -1.8874380142925959e+00  6.8270841803012479e+00 1.0865073000771011e+00 -1.8348315822867642e+00  6.7326553559330859e+00 1.0847027040409640e+00 -1.7802312674189740e+00  6.6377715666243011e+00 1.0851812401988965e+00 -1.7279498223032126e+00  6.5430097694158880e+00 1.0873017113433481e+00 -1.6774112482759405e+00  6.4481962713354219e+00 1.0844841443492139e+00 -1.6267949144930338e+00  6.3528853784661239e+00 1.0823205353211507e+00 -1.5773129444035690e+00  6.2580856866715440e+00 1.0814957286108497e+00 -1.5289045566162252e+00  6.1632151892082119e+00 1.0800724977717888e+00 -1.4805108201310433e+00  6.0687064402508035e+00 1.0790067124077269e+00 -1.4325362652842746e+00  5.9734839498032573e+00 1.0818713353858402e+00 -1.3855532815004648e+00  5.8781061552861003e+00 1.0843209981569328e+00 -1.3407753575572492e+00  5.7831442677385514e+00 1.0802030667044358e+00 -1.2953722003959460e+00  5.6877164466481469e+00 1.0790535330979349e+00 -1.2512147752467635e+00  5.5925297851049258e+00 1.0809656157469305e+00 -1.2088358083185256e+00  5.4981168326377521e+00 1.0774447997735084e+00 -1.1642724007845766e+00  5.4027678639281573e+00 1.0788660320218373e+00 -1.1215597961228598e+00  5.3074638771871339e+00 1.0807585112558946e+00 -1.0806276591581772e+00  5.2124373195778464e+00 1.0798020182102492e+00 -1.0383755920027726e+00  5.1181994811603726e+00 1.0799949125749224e+00 -9.9811402437817054e-01  5.0228325421371967e+00 1.0819564000891098e+00 -9.5929083006953508e-01  4.9274000742235105e+00 1.0798832665255373e+00 -9.1797405335340976e-01  4.8310912127009855e+00 1.0814224413226661e+00 -8.7731999715709652e-01  4.7352822573846467e+00 1.0827726881771778e+00 -8.4176825280074208e-01  4.6384441587418319e+00 1.0844795289868516e+00 -8.0835175943531379e-01  4.5415751842766001e+00 1.0808210534533262e+00 -7.7365602413453849e-01  4.4468710265688651e+00 1.0827993382944345e+00 -7.3874725065349733e-01  4.3515150818708666e+00 1.0829446177224109e+00 -7.0708216538606938e-01  4.2551066988638198e+00 1.0831492294070302e+00 -6.7348457710514353e-01  4.1589237518454105e+00 1.0811741594522992e+00 -6.3920060080075825e-01  4.0627405745025911e+00 1.0839099567890456e+00 -6.0860028792980925e-01  3.9672425945397989e+00 1.0833496272598266e+00 -5.7948414612762511e-01  3.8721001731694074e+00 1.0835527837388239e+00 -5.5161243830702322e-01  3.7753371542338452e+00 1.0863307644116753e+00 -5.2507125431745127e-01  3.6790828427960336e+00 1.0830832618294928e+00 -4.9778529230530955e-01  3.5817994253138292e+00 1.0819688980170730e+00 -4.7105360929848095e-01  3.4852444405852898e+00 1.0833055105681473e+00 -4.4733261283153314e-01  3.3886614407799218e+00 1.0810979339232123e+00 -4.2180892472764736e-01  3.2919643942724051e+00 1.0755214445853054e+00 -3.9538623143638790e-01  3.1958126736996268e+00 1.0763380596683938e+00 -3.7556713635660327e-01  3.0993377564485978e+00 1.0745219501704304e+00 -3.5373857545709431e-01  3.0032705104544140e+00 1.0756734433324400e+00 -3.3186691158232973e-01  2.9074359726712911e+00 1.0758788544545510e+00 -3.0944970330076621e-01  2.8106655225983896e+00 1.0761744139537142e+00 -2.8669759882170531e-01  2.7135421915687061e+00 1.0764521420564708e+00 -2.6532682972880017e-01  2.6168352055431265e+00 1.0783194576742516e+00 -2.4672332466575500e-01  2.5202683319645134e+00 1.0785327049588382e+00 -2.2728788678961631e-01  2.4234976365201764e+00 1.0789144250060463e+00 -2.0821357336632035e-01  2.3271864702565934e+00 1.0769818089692238e+00 -1.8937433859198727e-01  2.2310578076463727e+00 1.0770165994523753e+00 -1.7345784156696509e-01  2.1349813189514033e+00 1.0791178452700594e+00 -1.5807186144550622e-01  2.0375877764421735e+00 1.0792948059184420e+00 -1.4276557414794147e-01  1.9401616840322693e+00 1.0775213571387803e+00 -1.2541835524426065e-01  1.8433376993244188e+00 1.0805585843613204e+00 -1.1212912184301581e-01  1.7457112138330320e+00 1.0821260977187648e+00 -9.8361173691214276e-02  1.6486901427001901e+00 1.0777296699612158e+00 -8.3123512969513202e-02  1.5516200727907037e+00 1.0782436360132504e+00 -7.2544499135696924e-02  1.4553696291683840e+00 1.0777876398309381e+00 -6.3065164430668855e-02  1.3588831183768724e+00 1.0784888183561805e+00 -5.2719664150637995e-02  1.2622192284813263e+00 1.0774613577206658e+00 -4.0620686274726536e-02  1.1653905096942181e+00 1.0806760564274434e+00 -3.3612249776269379e-02  1.0684029342440888e+00 1.0814536643376231e+00 -2.6289553766780615e-02  9.7125794089050688e-01 1.0811775673061346e+00 -1.8961556111560512e-02  8.7361456720497432e-01 1.0798873596766503e+00 -1.3312090420921286e-02  7.7646729983554819e-01 1.0788428154815621e+00 -9.1123828255135417e-03  6.7877740389767383e-01 1.0787043251564570e+00 -5.6175097293205680e-03  5.8070100357018950e-01 1.0766691827788173e+00 -5.9242340061577538e-04  4.8376785162122593e-01 1.0747399561830950e+00 1.4544190206488561e-03  3.8655627086375549e-01 1.0751941163802927e+00 1.7465075514954532e-04  2.8934526359726165e-01 1.0701102442701562e+00 6.9573136823393325e-04  1.9242673944660532e-01 1.0682055471820249e+00 0.0000000000000000e+00  9.5899113327114857e-02 1.0644225005035564e+00 0.0000000000000000e+00  9.4276828496684715e+00 9.6668276896007543e-01 -3.8511434454041247e+00  9.4523374311170905e+00 7.8098880553125649e-01 -3.8227458229704006e+00  9.4804539539481301e+00 6.0196644172095748e-01 -3.8025221356079077e+00  9.4917698739486998e+00 3.9538573332462701e-01 -3.7921471509944600e+00  9.5074528353082837e+00 1.9157216619521569e-01 -3.7819251308538053e+00  9.4373258045983395e+00 0.0000000000000000e+00 -3.6864109190719532e+00  9.3534580516751458e+00 0.0000000000000000e+00 -3.6090107660718735e+00  9.2661398709225171e+00 0.0000000000000000e+00 -3.5266524381977340e+00  9.1752796124075200e+00 0.0000000000000000e+00 -3.4527469724476898e+00  9.0844545067289868e+00 0.0000000000000000e+00 -3.3842436899440393e+00  8.9903865724485392e+00 0.0000000000000000e+00 -3.3103934920275475e+00  8.8990936814019186e+00 0.0000000000000000e+00 -3.2454439774133323e+00  8.8022811480539378e+00 0.0000000000000000e+00 -3.1793923693655106e+00  8.7057924047853117e+00 0.0000000000000000e+00 -3.1038926143040335e+00  8.6104248986545411e+00 0.0000000000000000e+00 -3.0480284758504697e+00  8.5149586987469092e+00 0.0000000000000000e+00 -2.9836217255053747e+00  8.4225404071616872e+00 0.0000000000000000e+00 -2.9148705027613735e+00  8.3294728106990163e+00 0.0000000000000000e+00 -2.8414880173387425e+00  8.2327169226944648e+00 0.0000000000000000e+00 -2.7697849563991208e+00  8.1401767974113977e+00 0.0000000000000000e+00 -2.7164133182827275e+00  8.0482957462584412e+00 0.0000000000000000e+00 -2.6566060181002888e+00  7.9565992015302252e+00 0.0000000000000000e+00 -2.5874685863502309e+00  7.8603823369817709e+00 0.0000000000000000e+00 -2.5179836027129632e+00  7.7633666924887592e+00 0.0000000000000000e+00 -2.4707806376863939e+00  7.6707613661543217e+00 0.0000000000000000e+00 -2.4048161541002875e+00  7.5762886570369581e+00 0.0000000000000000e+00 -2.3396395967557959e+00  7.4851900613429034e+00 0.0000000000000000e+00 -2.2846848657722147e+00  7.3914601776227888e+00 0.0000000000000000e+00 -2.2176894738765358e+00  7.2955124607415680e+00 0.0000000000000000e+00 -2.1663734398846217e+00  7.2040508381554504e+00 0.0000000000000000e+00 -2.1077583315997082e+00  7.1103977443809185e+00 0.0000000000000000e+00 -2.0449858540907191e+00  7.0136153950542459e+00 0.0000000000000000e+00 -1.9863308798214641e+00  6.9173438844555415e+00 0.0000000000000000e+00 -1.9397861476942300e+00  6.8226551785434602e+00 0.0000000000000000e+00 -1.8835640066478521e+00  6.7273922744178352e+00 0.0000000000000000e+00 -1.8353184956890845e+00  6.6367396503285212e+00 0.0000000000000000e+00 -1.7874235161096039e+00  6.5434166622832315e+00 0.0000000000000000e+00 -1.7328237255636358e+00  6.4489244375661761e+00 0.0000000000000000e+00 -1.6675055302986292e+00  6.3517316450745405e+00 0.0000000000000000e+00 -1.6240220568565256e+00  6.2548838380915956e+00 0.0000000000000000e+00 -1.5652064047238354e+00  6.1618417935877092e+00 0.0000000000000000e+00 -1.5278854821070298e+00  6.0661811233937346e+00 0.0000000000000000e+00 -1.4747861424859823e+00  5.9669905830440175e+00 0.0000000000000000e+00 -1.4220733878975200e+00  5.8711333661561644e+00 0.0000000000000000e+00 -1.3804168542353610e+00  5.7788073926163124e+00 0.0000000000000000e+00 -1.3276663635244419e+00  5.6866816159675615e+00 0.0000000000000000e+00 -1.2931412753692746e+00  5.5949560487694985e+00 0.0000000000000000e+00 -1.2434309450139962e+00  5.4980270306307215e+00 0.0000000000000000e+00 -1.1945481641202695e+00  5.4068954227163459e+00 0.0000000000000000e+00 -1.1653743456658392e+00  5.3133075165446151e+00 0.0000000000000000e+00 -1.1232025807435999e+00  5.2169056515250585e+00 0.0000000000000000e+00 -1.0708209392313170e+00  5.1212971523277195e+00 0.0000000000000000e+00 -1.0386249549716968e+00  5.0248062949308006e+00 0.0000000000000000e+00 -9.9712031873180951e-01  4.9250897408432817e+00 0.0000000000000000e+00 -9.6482022583724680e-01  4.8310296722747434e+00 0.0000000000000000e+00 -9.2757041967193909e-01  4.7350775496864639e+00 0.0000000000000000e+00 -8.9713717268742343e-01  4.6381597921155207e+00 0.0000000000000000e+00 -8.5260088231722009e-01 