<?xml version="1.0"?>
<VTKFile type="UnstructuredGrid"  version="0.1"  >
<UnstructuredGrid>
<Piece  NumberOfPoints="3069" NumberOfCells="12882">
<Points>
<DataArray  type="Float64"  NumberOfComponents="3"  format="ascii">0 0 0  0 0 4  0 5.65685415 0  50 0 4  50 5.65685415 0  50 0 0  0 0 1  0 0 2  0 0 3  0 1.04967844 3.90746784  0 2.0669806 3.632725  0 3.02052855 3.18424606  0 3.88091111 2.5758636  0 4.62159061 1.82634306  0 5.21972132 0.958802283  0 4.71404505 0  0 3.77123618 0  0 2.82842708 0  0 1.88561809 0  0 0.942809045 0  0.5 0 4  1 0 4  1.5 0 4  2 0 4  2.5 0 4  3 0 4  3.5 0 4  4 0 4  4.5 0 4  5 0 4  5.5 0 4  6 0 4  6.5 0 4  7 0 4  7.5 0 4  8 0 4  8.5 0 4  9 0 4  9.5 0 4  10 0 4  10.5 0 4  11 0 4  11.5 0 4  12 0 4  12.5 0 4  13 0 4  13.5 0 4  14 0 4  14.5 0 4  15 0 4  15.5 0 4  16 0 4  16.5 0 4  17 0 4  17.5 0 4  18 0 4  18.5 0 4  19 0 4  19.5 0 4  20 0 4  20.5 0 4  21 0 4  21.5 0 4  22 0 4  22.5 0 4  23 0 4  23.5 0 4  24 0 4  24.5 0 4  25 0 4  25.5 0 4  26 0 4  26.5 0 4  27 0 4  27.5 0 4  28 0 4  28.5 0 4  29 0 4  29.5 0 4  30 0 4  30.5 0 4  31 0 4  31.5 0 4  32 0 4  32.5 0 4  33 0 4  33.5 0 4  34 0 4  34.5 0 4  35 0 4  35.5 0 4  36 0 4  36.5 0 4  37 0 4  37.5 0 4  38 0 4  38.5 0 4  39 0 4  39.5 0 4  40 0 4  40.5 0 4  41 0 4  41.5 0 4  42 0 4  42.5 0 4  43 0 4  43.5 0 4  44 0 4  44.5 0 4  45 0 4  45.5 0 4  46 0 4  46.5 0 4  47 0 4  47.5 0 4  48 0 4  48.5 0 4  49 0 4  49.5 0 4  50 1.04967844 3.90746784  50 2.0669806 3.632725  50 3.02052855 3.18424606  50 3.88091111 2.5758636  50 4.62159061 1.82634306  50 5.21972132 0.958802283  49.5 5.65685415 0  49 5.65685415 0  48.5 5.65685415 0  48 5.65685415 0  47.5 5.65685415 0  47 5.65685415 0  46.5 5.65685415 0  46 5.65685415 0  45.5 5.65685415 0  45 5.65685415 0  44.5 5.65685415 0  44 5.65685415 0  43.5 5.65685415 0  43 5.65685415 0  42.5 5.65685415 0  42 5.65685415 0  41.5 5.65685415 0  41 5.65685415 0  40.5 5.65685415 0  40 5.65685415 0  39.5 5.65685415 0  39 5.65685415 0  38.5 5.65685415 0  38 5.65685415 0  37.5 5.65685415 0  37 5.65685415 0  36.5 5.65685415 0  36 5.65685415 0  35.5 5.65685415 0  35 5.65685415 0  34.5 5.65685415 0  34 5.65685415 0  33.5 5.65685415 0  33 5.65685415 0  32.5 5.65685415 0  32 5.65685415 0  31.5 5.65685415 0  31 5.65685415 0  30.5 5.65685415 0  30 5.65685415 0  29.5 5.65685415 0  29 5.65685415 0  28.5 5.65685415 0  28 5.65685415 0  27.5 5.65685415 0  27 5.65685415 0  26.5 5.65685415 0  26 5.65685415 0  25.5 5.65685415 0  25 5.65685415 0  24.5 5.65685415 0  24 5.65685415 0  23.5 5.65685415 0  23 5.65685415 0  22.5 5.65685415 0  22 5.65685415 0  21.5 5.65685415 0  21 5.65685415 0  20.5 5.65685415 0  20 5.65685415 0  19.5 5.65685415 0  19 5.65685415 0  18.5 5.65685415 0  18 5.65685415 0  17.5 5.65685415 0  17 5.65685415 0  16.5 5.65685415 0  16 5.65685415 0  15.5 5.65685415 0  15 5.65685415 0  14.5 5.65685415 0  14 5.65685415 0  13.5 5.65685415 0  13 5.65685415 0  12.5 5.65685415 0  12 5.65685415 0  11.5 5.65685415 0  11 5.65685415 0  10.5 5.65685415 0  10 5.65685415 0  9.5 5.65685415 0  9 5.65685415 0  8.5 5.65685415 0  8 5.65685415 0  7.5 5.65685415 0  7 5.65685415 0  6.5 5.65685415 0  6 5.65685415 0  5.5 5.65685415 0  5 5.65685415 0  4.5 5.65685415 0  4 5.65685415 0  3.5 5.65685415 0  3 5.65685415 0  2.5 5.65685415 0  2 5.65685415 0  1.5 5.65685415 0  1 5.65685415 0  0.5 5.65685415 0  50 4.71404505 0  50 3.77123618 0  50 2.82842708 0  50 1.88561809 0  50 0.942809045 0  49.5 0 0  49 0 0  48.5 0 0  48 0 0  47.5 0 0  47 0 0  46.5 0 0  46 0 0  45.5 0 0  45 0 0  44.5 0 0  44 0 0  43.5 0 0  43 0 0  42.5 0 0  42 0 0  41.5 0 0  41 0 0  40.5 0 0  40 0 0  39.5 0 0  39 0 0  38.5 0 0  38 0 0  37.5 0 0  37 0 0  36.5 0 0  36 0 0  35.5 0 0  35 0 0  34.5 0 0  34 0 0  33.5 0 0  33 0 0  32.5 0 0  32 0 0  31.5 0 0  31 0 0  30.5 0 0  30 0 0  29.5 0 0  29 0 0  28.5 0 0  28 0 0  27.5 0 0  27 0 0  26.5 0 0  26 0 0  25.5 0 0  25 0 0  24.5 0 0  24 0 0  23.5 0 0  23 0 0  22.5 0 0  22 0 0  21.5 0 0  21 0 0  20.5 0 0  20 0 0  19.5 0 0  19 0 0  18.5 0 0  18 0 0  17.5 0 0  17 0 0  16.5 0 0  16 0 0  15.5 0 0  15 0 0  14.5 0 0  14 0 0  13.5 0 0  13 0 0  12.5 0 0  12 0 0  11.5 0 0  11 0 0  10.5 0 0  10 0 0  9.5 0 0  9 0 0  8.5 0 0  8 0 0  7.5 0 0  7 0 0  6.5 0 0  6 0 0  5.5 0 0  5 0 0  4.5 0 0  4 0 0  3.5 0 0  3 0 0  2.5 0 0  2 0 0  1.5 0 0  1 0 0  0.5 0 0  50 0 1  50 0 2  50 0 3  0 2.33524275 0.893602192  0 2.87561393 1.93323028  0 4.2367816 0.876864135  0 2.00050235 2.65534091  0 0.981494486 2.34323239  0 3.78543234 1.61830366  0 3.30545568 0.887000024  0 0.812916458 1.58408713  0 1.71948838 1.71268857  0 1.28267908 0.8650629520000001  0 1.21973121 3.10775328  0.5 5.21972132 0.958802223  0.5 4.62159061 1.82634306  0.5 3.88091111 2.5758636  0.5 3.02052855 3.18424606  0.5 2.0669806 3.632725  0.5 1.04967844 3.90746784  1 5.21972132 0.958802223  1 4.62159061 1.82634306  1 3.88091111 2.5758636  1 3.02052855 3.18424606  1 2.0669806 3.632725  1 1.04967844 3.90746784  1.5 5.21972132 0.958802223  1.5 4.62159061 1.82634306  1.5 3.88091111 2.5758636  1.5 3.02052855 3.18424606  1.5 2.0669806 3.632725  1.5 1.04967844 3.90746784  2 5.21972132 0.958802223  2 4.62159061 1.82634306  2 3.88091111 2.5758636  2 3.02052855 3.18424606  2 2.0669806 3.632725  2 1.04967844 3.90746784  2.5 5.21972132 0.958802223  2.5 4.62159061 1.82634306  2.5 3.88091111 2.5758636  2.5 3.02052855 3.18424606  2.5 2.0669806 3.632725  2.5 1.04967844 3.90746784  3 5.21972132 0.958802223  3 4.62159061 1.82634306  3 3.88091111 2.5758636  3 3.02052855 3.18424606  3 2.0669806 3.632725  3 1.04967844 3.90746784  3.5 5.21972132 0.958802223  3.5 4.62159061 1.82634306  3.5 3.88091111 2.5758636  3.5 3.02052855 3.18424606  3.5 2.0669806 3.632725  3.5 1.04967844 3.90746784  4 5.21972132 0.958802223  4 4.62159061 1.82634306  4 3.88091111 2.5758636  4 3.02052855 3.18424606  4 2.0669806 3.632725  4 1.04967844 3.90746784  4.5 5.21972132 0.958802223  4.5 4.62159061 1.82634306  4.5 3.88091111 2.5758636  4.5 3.02052855 3.18424606  4.5 2.0669806 3.632725  4.5 1.04967844 3.90746784  5 5.21972132 0.958802223  5 4.62159061 1.82634306  5 3.88091111 2.5758636  5 3.02052855 3.18424606  5 2.0669806 3.632725  5 1.04967844 3.90746784  5.5 5.21972132 0.958802223  5.5 4.62159061 1.82634306  5.5 3.88091111 2.5758636  5.5 3.02052855 3.18424606  5.5 2.0669806 3.632725  5.5 1.04967844 3.90746784  6 5.21972132 0.958802223  6 4.62159061 1.82634306  6 3.88091111 2.5758636  6 3.02052855 3.18424606  6 2.0669806 3.632725  6 1.04967844 3.90746784  6.5 5.21972132 0.958802223  6.5 4.62159061 1.82634306  6.5 3.88091111 2.5758636  6.5 3.02052855 3.18424606  6.5 2.0669806 3.632725  6.5 1.04967844 3.90746784  7 5.21972132 0.958802223  7 4.62159061 1.82634306  7 3.88091111 2.5758636  7 3.02052855 3.18424606  7 2.0669806 3.632725  7 1.04967844 3.90746784  7.5 5.21972132 0.958802223  7.5 4.62159061 1.82634306  7.5 3.88091111 2.5758636  7.5 3.02052855 3.18424606  7.5 2.0669806 3.632725  7.5 1.04967844 3.90746784  8 5.21972132 0.958802223  8 4.62159061 1.82634306  8 3.88091111 2.5758636  8 3.02052855 3.18424606  8 2.0669806 3.632725  8 1.04967844 3.90746784  8.5 5.21972132 0.958802223  8.5 4.62159061 1.82634306  8.5 3.88091111 2.5758636  8.5 3.02052855 3.18424606  8.5 2.0669806 3.632725  8.5 1.04967844 3.90746784  9 5.21972132 0.958802223  9 4.62159061 1.82634306  9 3.88091111 2.5758636  9 3.02052855 3.18424606  9 2.0669806 3.632725  9 1.04967844 3.90746784  9.5 5.21972132 0.958802223  9.5 4.62159061 1.82634306  9.5 3.88091111 2.5758636  9.5 3.02052855 3.18424606  9.5 2.0669806 3.632725  9.5 1.04967844 3.90746784  10 5.21972132 0.958802223  10 4.62159061 1.82634306  10 3.88091111 2.5758636  10 3.02052855 3.18424606  10 2.0669806 3.632725  10 1.04967844 3.90746784  10.5 5.21972132 0.958802223  10.5 4.62159061 1.82634306  10.5 3.88091111 2.5758636  10.5 3.02052855 3.18424606  10.5 2.0669806 3.632725  10.5 1.04967844 3.90746784  11 5.21972132 0.958802223  11 4.62159061 1.82634306  11 3.88091111 2.5758636  11 3.02052855 3.18424606  11 2.0669806 3.632725  11 1.04967844 3.90746784  11.5 5.21972132 0.958802223  11.5 4.62159061 1.82634306  11.5 3.88091111 2.5758636  11.5 3.02052855 3.18424606  11.5 2.0669806 3.632725  11.5 1.04967844 3.90746784  12 5.21972132 0.958802223  12 4.62159061 1.82634306  12 3.88091111 2.5758636  12 3.02052855 3.18424606  12 2.0669806 3.632725  12 1.04967844 3.90746784  12.5 5.21972132 0.958802223  12.5 4.62159061 1.82634306  12.5 3.88091111 2.5758636  12.5 3.02052855 3.18424606  12.5 2.0669806 3.632725  12.5 1.04967844 3.90746784  13 5.21972132 0.958802223  13 4.62159061 1.82634306  13 3.88091111 2.5758636  13 3.02052855 3.18424606  13 2.0669806 3.632725  13 1.04967844 3.90746784  13.5 5.21972132 0.958802223  13.5 4.62159061 1.82634306  13.5 3.88091111 2.5758636  13.5 3.02052855 3.18424606  13.5 2.0669806 3.632725  13.5 1.04967844 3.90746784  14 5.21972132 0.958802223  14 4.62159061 1.82634306  14 3.88091111 2.5758636  14 3.02052855 3.18424606  14 2.0669806 3.632725  14 1.04967844 3.90746784  14.5 5.21972132 0.958802223  14.5 4.62159061 1.82634306  14.5 3.88091111 2.5758636  14.5 3.02052855 3.18424606  14.5 2.0669806 3.632725  14.5 1.04967844 3.90746784  15 5.21972132 0.958802223  15 4.62159061 1.82634306  15 3.88091111 2.5758636  15 3.02052855 3.18424606  15 2.0669806 3.632725  15 1.04967844 3.90746784  15.5 5.21972132 0.958802223  15.5 4.62159061 1.82634306  15.5 3.88091111 2.5758636  15.5 3.02052855 3.18424606  15.5 2.0669806 3.632725  15.5 1.04967844 3.90746784  16 5.21972132 0.958802223  16 4.62159061 1.82634306  16 3.88091111 2.5758636  16 3.02052855 3.18424606  16 2.0669806 3.632725  16 1.04967844 3.90746784  16.5 5.21972132 0.958802223  16.5 4.62159061 1.82634306  16.5 3.88091111 2.5758636  16.5 3.02052855 3.18424606  16.5 2.0669806 3.632725  16.5 1.04967844 3.90746784  17 5.21972132 0.958802223  17 4.62159061 1.82634306  17 3.88091111 2.5758636  17 3.02052855 3.18424606  17 2.0669806 3.632725  17 1.04967844 3.90746784  17.5 5.21972132 0.958802223  17.5 4.62159061 1.82634306  17.5 3.88091111 2.5758636  17.5 3.02052855 3.18424606  17.
[...]
<PointData  Vectors="f_261141-0"> 
<DataArray  type="Float64"  Name="f_261141-0"  NumberOfComponents="3" format="ascii">0.0000000000000000e+00 0.0000000000000000e+00 0.0000000000000000e+00  0.0000000000000000e+00 0.0000000000000000e+00 7.8007466218297161e-01  0.0000000000000000e+00 1.0683718596193854e+00 0.0000000000000000e+00  9.8634700132758972e+00 0.0000000000000000e+00 3.6104934675767741e-01  9.9168116453704620e+00 1.0271715020531378e+00 -3.1563700579389309e-01  9.8386272664042149e+00 0.0000000000000000e+00 -2.9937034049464595e-01  0.0000000000000000e+00 0.0000000000000000e+00 1.5641404791732402e-01  0.0000000000000000e+00 0.0000000000000000e+00 3.8572837200278776e-01  0.0000000000000000e+00 0.0000000000000000e+00 6.3019594794787015e-01  0.0000000000000000e+00 2.1927509091331057e-01 7.4690804018254964e-01  0.0000000000000000e+00 3.9846629207935713e-01 6.8365598596307831e-01  0.0000000000000000e+00 5.8877742961294055e-01 6.2503766046658893e-01  0.0000000000000000e+00 7.7577585591653753e-01 5.1343454846481196e-01  0.0000000000000000e+00 9.3240478507031388e-01 3.2975635349463861e-01  0.0000000000000000e+00 1.0354053867087101e+00 1.7214340471055106e-01  0.0000000000000000e+00 9.1678820354474166e-01 0.0000000000000000e+00  0.0000000000000000e+00 7.5079538740304030e-01 0.0000000000000000e+00  0.0000000000000000e+00 5.5634322297390315e-01 0.0000000000000000e+00  0.0000000000000000e+00 3.6023766778590005e-01 0.0000000000000000e+00  0.0000000000000000e+00 1.8093276932563745e-01 0.0000000000000000e+00  9.8810087770913532e-02 0.0000000000000000e+00 7.8366065321523215e-01  1.9683309164764812e-01 0.0000000000000000e+00 7.8138944077754902e-01  2.9637478166711190e-01 0.0000000000000000e+00 7.8136980932621136e-01  3.9717119131859330e-01 0.0000000000000000e+00 7.8307044121549541e-01  4.9167218582886096e-01 0.0000000000000000e+00 7.9058161009321148e-01  5.9825207601491170e-01 0.0000000000000000e+00 7.8453955807628051e-01  6.9473797416433325e-01 0.0000000000000000e+00 7.8485451734882028e-01  7.9731984500458497e-01 0.0000000000000000e+00 7.7686990847243176e-01  8.9860697526783417e-01 0.0000000000000000e+00 7.7300911405309003e-01  9.9567084237232928e-01 0.0000000000000000e+00 7.7390365129914696e-01  1.0935652829038471e+00 0.0000000000000000e+00 7.7400669714808545e-01  1.1916765983100894e+00 0.0000000000000000e+00 7.8315051669758684e-01  1.2914939592528203e+00 0.0000000000000000e+00 7.8810634105202282e-01  1.4029787701611387e+00 0.0000000000000000e+00 7.7277904276509302e-01  1.5029499183609492e+00 0.0000000000000000e+00 7.7043198903968024e-01  1.6074665609427989e+00 0.0000000000000000e+00 7.6535869450871286e-01  1.7073287556152297e+00 0.0000000000000000e+00 7.6437945928429363e-01  1.8074480685629559e+00 0.0000000000000000e+00 7.5887519593922470e-01  1.9057853328476959e+00 0.0000000000000000e+00 7.6033968646968653e-01  2.0019292513784910e+00 0.0000000000000000e+00 7.6680719657359631e-01  2.0991324418054136e+00 0.0000000000000000e+00 7.7617351810957957e-01  2.2011799148161719e+00 0.0000000000000000e+00 7.6674157832613510e-01  2.3023563242708325e+00 0.0000000000000000e+00 7.6740400424572097e-01  2.4037755569642774e+00 0.0000000000000000e+00 7.6129428123123011e-01  2.5018952173205160e+00 0.0000000000000000e+00 7.6647451287455737e-01  2.6034124479536849e+00 0.0000000000000000e+00 7.6065555307700505e-01  2.7046018836303967e+00 0.0000000000000000e+00 7.5557484100158578e-01  2.8014289882266046e+00 0.0000000000000000e+00 7.6162618473569488e-01  2.9011949599453728e+00 0.0000000000000000e+00 7.5845119081948187e-01  3.0008061620997544e+00 0.0000000000000000e+00 7.4803879529927408e-01  3.0935480049246853e+00 0.0000000000000000e+00 7.6076647733931035e-01  3.1934664392184833e+00 0.0000000000000000e+00 7.5363327882715359e-01  3.2925611264760160e+00 0.0000000000000000e+00 7.4773177337543972e-01  3.3955407195034550e+00 0.0000000000000000e+00 7.3430308273965694e-01  3.4982185605542244e+00 0.0000000000000000e+00 7.2796068086986565e-01  3.5997367748710491e+00 0.0000000000000000e+00 7.2836951416594331e-01  3.7002109083733998e+00 0.0000000000000000e+00 7.2761695513571967e-01  3.7979366453189582e+00 0.0000000000000000e+00 7.3170974411246792e-01  3.9007946335331605e+00 0.0000000000000000e+00 7.2442337297909309e-01  3.9982394458606807e+00 0.0000000000000000e+00 7.2990934952233522e-01  4.0951890970163562e+00 0.0000000000000000e+00 7.3279090532614999e-01  4.1968984313280435e+00 0.0000000000000000e+00 7.2832659770231700e-01  4.2922353514403175e+00 0.0000000000000000e+00 7.2564391811817441e-01  4.3975711173550014e+00 0.0000000000000000e+00 7.0462311511594067e-01  4.4933891354714204e+00 0.0000000000000000e+00 7.0518793376023159e-01  4.5913372479821035e+00 0.0000000000000000e+00 7.0495037203539235e-01  4.6899766938116700e+00 0.0000000000000000e+00 7.1414312556858506e-01  4.7906045092707323e+00 0.0000000000000000e+00 7.1721471309894735e-01  4.8909214958215621e+00 0.0000000000000000e+00 7.1608451754134594e-01  4.9922139471424849e+00 0.0000000000000000e+00 7.1221719739750045e-01  5.0942013033395295e+00 0.0000000000000000e+00 7.0487184270756875e-01  5.1899243794414058e+00 0.0000000000000000e+00 7.1570791203839890e-01  5.2935761470903060e+00 0.0000000000000000e+00 7.0584110645054210e-01  5.3896519331909545e+00 0.0000000000000000e+00 7.1474499592490404e-01  5.4919497572279186e+00 0.0000000000000000e+00 7.0490301734103478e-01  5.5975617374932805e+00 0.0000000000000000e+00 6.9850045057173904e-01  5.6969821266040119e+00 0.0000000000000000e+00 6.9368119068508316e-01  5.7953115018935293e+00 0.0000000000000000e+00 6.9668508269213902e-01  5.8953505191728333e+00 0.0000000000000000e+00 6.9909201721770076e-01  5.9968630337975544e+00 0.0000000000000000e+00 6.8860518952969485e-01  6.0963430614088043e+00 0.0000000000000000e+00 6.7123055907679385e-01  6.1930613469733382e+00 0.0000000000000000e+00 6.7953616555598828e-01  6.2937570276414592e+00 0.0000000000000000e+00 6.6993026476664486e-01  6.3952683325688495e+00 0.0000000000000000e+00 6.6242809131319491e-01  6.4910833854728542e+00 0.0000000000000000e+00 6.7388499751213471e-01  6.5943514515000379e+00 0.0000000000000000e+00 6.7691628684064931e-01  6.7003255345911139e+00 0.0000000000000000e+00 6.7305963424236148e-01  6.7967815496460879e+00 0.0000000000000000e+00 6.7031287910351722e-01  6.8954182762764002e+00 0.0000000000000000e+00 6.6859073475226949e-01  6.9932603867408281e+00 0.0000000000000000e+00 6.6138517153825216e-01  7.0918975756393650e+00 0.0000000000000000e+00 6.6071548025804716e-01  7.1907875378239945e+00 0.0000000000000000e+00 6.6119033733983301e-01  7.2939048236858950e+00 0.0000000000000000e+00 6.4319475240809731e-01  7.3939736261378597e+00 0.0000000000000000e+00 6.4009240106667653e-01  7.4994961010009806e+00 0.0000000000000000e+00 6.3333510411752070e-01  7.5980125700928562e+00 0.0000000000000000e+00 6.3309608507605997e-01  7.6999645865596476e+00 0.0000000000000000e+00 6.3024692761062240e-01  7.7968670143705197e+00 0.0000000000000000e+00 6.2538628385686168e-01  7.9000790415382793e+00 0.0000000000000000e+00 6.1198598247264968e-01  7.9972664871570327e+00 0.0000000000000000e+00 6.0807308742847932e-01  8.0975127639978854e+00 0.0000000000000000e+00 6.0701792129563859e-01  8.2042554944108890e+00 0.0000000000000000e+00 5.9606929941934872e-01  8.3083216160112414e+00 0.0000000000000000e+00 5.8902616755628057e-01  8.4064268763235024e+00 0.0000000000000000e+00 5.9040887904256412e-01  8.5104807684453210e+00 0.0000000000000000e+00 5.7657334403736515e-01  8.6078902786114622e+00 0.0000000000000000e+00 5.7472014454793718e-01  8.7111454056542925e+00 0.0000000000000000e+00 5.6661973383111053e-01  8.8127342865967808e+00 0.0000000000000000e+00 5.5077615440938155e-01  8.9157786310794567e+00 0.0000000000000000e+00 5.2609999878977720e-01  9.0132560532780399e+00 0.0000000000000000e+00 5.1396923798746674e-01  9.1140640937894464e+00 0.0000000000000000e+00 4.9058892841126267e-01  9.2112688629446158e+00 0.0000000000000000e+00 4.7195039349981249e-01  9.3053348110904857e+00 0.0000000000000000e+00 4.5439589742304370e-01  9.3949611001149886e+00 0.0000000000000000e+00 4.3503061502534529e-01  9.4804642694067169e+00 0.0000000000000000e+00 4.1345668456683293e-01  9.5633585388359954e+00 0.0000000000000000e+00 3.9585424195145019e-01  9.6438160264826323e+00 0.0000000000000000e+00 3.8562113810906395e-01  9.7221255035519114e+00 0.0000000000000000e+00 3.6951080555307031e-01  9.7953561329828922e+00 0.0000000000000000e+00 3.5766775156365643e-01  9.8672762452883376e+00 1.5073318745302550e-01 3.4690133488380748e-01  9.8922413931193631e+00 3.0744752996871305e-01 3.1955597210933001e-01  9.9106107681421403e+00 4.7540052528399213e-01 2.7196445895557630e-01  9.9321324803916777e+00 6.5566815883195262e-01 2.0499330659032208e-01  9.9773171988813107e+00 8.4672999785846104e-01 5.7656560976455613e-02  9.9469097397398585e+00 9.5912062847159829e-01 -1.3890554510810679e-01  9.8289713789768669e+00 1.0329747878334516e+00 -3.0488487498734651e-01  9.7365785750142582e+00 1.0400361229998478e+00 -2.9508203354448820e-01  9.6434967503838021e+00 1.0464306377451378e+00 -2.8391033786904601e-01  9.5455147533854880e+00 1.0481577786693552e+00 -2.6637983369120355e-01  9.4522994277152463e+00 1.0518623412075256e+00 -2.5859250503076514e-01  9.3579928776803936e+00 1.0628120264211145e+00 -2.5903386144545820e-01  9.2618409134054573e+00 1.0601863798996098e+00 -2.5669259650085646e-01  9.1608433843886417e+00 1.0637939154066081e+00 -2.4812753531710890e-01  9.0613905007493099e+00 1.0704939571784184e+00 -2.4069509878100395e-01  8.9590047614086856e+00 1.0730956595725336e+00 -2.3050520501424904e-01  8.8573092728679104e+00 1.0753390135605925e+00 -2.2376464497237683e-01  8.7563451260889025e+00 1.0851327651129017e+00 -2.2022937502492501e-01  8.6565196603403400e+00 1.0867016487159864e+00 -2.0748960795413623e-01  8.5558524175024342e+00 1.0841525004424239e+00 -2.0044033091484423e-01  8.4569526243417084e+00 1.0866012914739347e+00 -2.0830281530038741e-01  8.3508152102530762e+00 1.0781918722573458e+00 -2.0233733482355243e-01  8.2567938549315212e+00 1.0816510707607092e+00 -1.8480775862117826e-01  8.1589910145314111e+00 1.0938299499447781e+00 -1.7100399940662372e-01  8.0636397486538556e+00 1.0998879276989573e+00 -1.6330336658137512e-01  7.9658644466320174e+00 1.1037474833956675e+00 -1.5153950166744284e-01  7.8666273389813970e+00 1.1088228727989209e+00 -1.3817480165269902e-01  7.7654380234805789e+00 1.1041085306220466e+00 -1.2131240911888769e-01  7.6643293777662844e+00 1.1111003523497760e+00 -1.1812548952867270e-01  7.5643134791673452e+00 1.0960263173199603e+00 -1.1284450884935460e-01  7.4670103723005870e+00 1.0969787049768758e+00 -1.1698882740124970e-01  7.3684351952128315e+00 1.0946299265702553e+00 -1.1631130366716649e-01  7.2673575194506732e+00 1.0939941977087235e+00 -1.1548409357564039e-01  7.1674234005376309e+00 1.0937025804753300e+00 -1.1840217129928673e-01  7.0688568064738719e+00 1.0944254951358674e+00 -1.1870777802719307e-01  6.9701772901985048e+00 1.0907910898218045e+00 -1.1392961864478886e-01  6.8694069199677541e+00 1.0894901277238629e+00 -1.1205659970890997e-01  6.7696087661949402e+00 1.0933645363973652e+00 -1.1315003855641485e-01  6.6693887261421692e+00 1.0866546990613886e+00 -1.1364500650333473e-01  6.5686699747216988e+00 1.0808843934800461e+00 -1.1613967430830652e-01  6.4693830123792475e+00 1.0790929471332888e+00 -1.1501099747556694e-01  6.3702219759577661e+00 1.0768960212738110e+00 -1.1510152356525186e-01  6.2701104893036668e+00 1.0797075337778130e+00 -1.1542185271526277e-01  6.1680915231315065e+00 1.0824239804057421e+00 -1.1261400484955836e-01  6.0672641515991614e+00 1.0859500849070862e+00 -1.1595422184813028e-01  5.9681544897363761e+00 1.0755579035017355e+00 -1.1743674370506969e-01  5.8673109283702214e+00 1.0713767892737913e+00 -1.1887260666421416e-01  5.7682501178366250e+00 1.0748240440775390e+00 -1.1998127873216867e-01  5.6705965843010144e+00 1.0648901414887724e+00 -1.1115116388111231e-01  5.5718089763760226e+00 1.0665956669850869e+00 -1.0542913072708329e-01  5.4749940558333838e+00 1.0747366146079129e+00 -1.0446444102666169e-01  5.3776704922670353e+00 1.0739931218890415e+00 -9.5808573230798361e-02  5.2817680770444015e+00 1.0784230592688133e+00 -9.0989234712893788e-02  5.1827954684535653e+00 1.0825044322976367e+00 -8.7920047554944911e-02  5.0818837994651673e+00 1.0774191030462936e+00 -7.7744867682410276e-02  4.9791350604720215e+00 1.0844702236218096e+00 -6.9871804058020098e-02  4.8783469454678299e+00 1.0844975274269866e+00 -6.9102405709127596e-02  4.7770339210755672e+00 1.0918678004687117e+00 -7.5912244786949051e-02  4.6768366601799087e+00 1.0851993051718156e+00 -7.2497733768846925e-02  4.5738108634594887e+00 1.0872658522909977e+00 -7.9926225131956283e-02  4.4768358791030121e+00 1.0862451766690671e+00 -8.1167192602762048e-02  4.3752902453218026e+00 1.0851562943223771e+00 -7.2911424659223789e-02  4.2740630369520991e+00 1.0819428601779053e+00 -5.9773188581986075e-02  4.1750448841260051e+00 1.0909403145379295e+00 -5.9078867761347076e-02  4.0766000553618351e+00 1.0914127499508948e+00 -5.6901343055995007e-02  3.9796441459908793e+00 1.0918921542414894e+00 -5.7531557004727660e-02  3.8776704372357118e+00 1.0978626796780777e+00 -6.0128199132106430e-02  3.7777368167249148e+00 1.0878356183364226e+00 -5.9639210959285399e-02  3.6746109721409534e+00 1.0866077046605982e+00 -5.6312865831939729e-02  3.5764056338623473e+00 1.0912389502591375e+00 -6.2942922118032582e-02  3.4759538805936963e+00 1.0843132945830718e+00 -5.6481433495908007e-02  3.3748749125760948e+00 1.0696641724322138e+00 -4.6054954509846632e-02  3.2769511793988424e+00 1.0750938038891371e+00 -5.4787716132059787e-02  3.1776944484818879e+00 1.0735262785340607e+00 -5.8842798993685948e-02  3.0806458570831925e+00 1.0705759345500665e+00 -5.8064072097278784e-02  2.9831724585242236e+00 1.0727307182010810e+00 -5.5825093505746888e-02  2.8827307860412441e+00 1.0743429383239071e+00 -4.8099933638657680e-02  2.7818940250458977e+00 1.0780397816920670e+00 -4.3660767477485513e-02  2.6828892197399585e+00 1.0837150461315459e+00 -4.4088114619344081e-02  2.5824268393385217e+00 1.0810162830985945e+00 -3.8198509421744006e-02  2.4821055447479279e+00 1.0826097595271003e+00 -3.5050150629526738e-02  2.3824935098106628e+00 1.0771656552028730e+00 -2.8769538344408912e-02  2.2834701203072716e+00 1.0818359545225118e+00 -2.7906347618552568e-02  2.1874016650903276e+00 1.0872385990960109e+00 -2.6949060201581575e-02  2.0855859264767180e+00 1.0896570656162361e+00 -2.4310833010994421e-02  1.9837423458543513e+00 1.0809060345612516e+00 -1.1808822703449576e-02  1.8856616473979073e+00 1.0913534343790012e+00 -1.2857327601648968e-02  1.7846191196936456e+00 1.0925328836831822e+00 -8.6478240530274541e-03  1.6859844811621088e+00 1.0795999135674657e+00 -1.0180011423760440e-04  1.5867826337630002e+00 1.0835164096444057e+00 -3.1094012762199544e-03  1.4902931462605344e+00 1.0842134263204608e+00 -6.1310890858176361e-03  1.3926374966416146e+00 1.0853463730058102e+00 -2.3974027652044539e-03  1.2928909001601032e+00 1.0817462922503254e+00 8.4732063509410736e-03  1.1925929735508951e+00 1.0923455258937098e+00 5.8583359202547224e-03  1.0922586662106522e+00 1.0932447456117107e+00 4.7564239471935069e-03  9.9173963982419688e-01 1.0953965324322610e+00 6.9464753934351140e-03  8.9154489938092907e-01 1.0910241445123359e+00 3.6497450932924101e-03  7.9282937054605573e-01 1.0900592628624013e+00 4.1236005914521553e-03  6.9230181429288717e-01 1.0939547572340200e+00 2.9811606407395132e-03  5.8971590203862045e-01 1.0906198326976952e+00 1.1994258278223474e-02  4.9186638512189340e-01 1.0863462268657744e+00 1.4363887919536928e-02  3.9295036599113820e-01 1.0911303896343705e+00 6.7440644623627767e-03  2.9216273861312164e-01 1.0789385313777344e+00 4.9128015246660186e-03  1.9434000935103019e-01 1.0735823070564043e+00 0.0000000000000000e+00  9.5773460261908833e-02 1.0658929040582934e+00 0.0000000000000000e+00  9.9049056897711232e+00 8.5104855403099655e-01 -3.0762438201537962e-01  9.8902434377649193e+00 6.7298449599984733e-01 -3.0687671941140487e-01  9.8766399294242859e+00 5.0476415112506845e-01 -3.0929815471060101e-01  9.8678545090926235e+00 3.3123989131600917e-01 -2.9694745931108363e-01  9.8477725273898589e+00 1.5341808320928554e-01 -3.0697960216741182e-01  9.7548793684443389e+00 0.0000000000000000e+00 -3.0298009452087860e-01  9.6732528953700996e+00 0.0000000000000000e+00 -2.9967214247577717e-01  9.5868630129366288e+00 0.0000000000000000e+00 -2.9974843657074146e-01  9.4980272495309084e+00 0.0000000000000000e+00 -2.9836002445814080e-01  9.4057404498882775e+00 0.0000000000000000e+00 -2.8692546818008419e-01  9.3094009366203903e+00 0.0000000000000000e+00 -2.8163825266529280e-01  9.2153052158988000e+00 0.0000000000000000e+00 -2.7720071108550154e-01  9.1146191678295292e+00 0.0000000000000000e+00 -2.6633003677230294e-01  9.0166179834629432e+00 0.0000000000000000e+00 -2.5485145030208317e-01  8.9199498528998298e+00 0.0000000000000000e+00 -2.5554837427126720e-01  8.8218685578996610e+00 0.0000000000000000e+00 -2.4182702348626237e-01  8.7278932661279160e+00 0.0000000000000000e+00 -2.3383670078451974e-01  8.6326487998607444e+00 0.0000000000000000e+00 -2.1565813725257804e-01  8.5308075529556060e+00 0.0000000000000000e+00 -1.9881023493824099e-01  8.4396447181037164e+00 0.0000000000000000e+00 -2.0186894596994534e-01  8.3455545337939387e+00 0.0000000000000000e+00 -2.0121266744594107e-01  8.2488510844214478e+00 0.0000000000000000e+00 -1.8902024120427055e-01  8.1517397529403368e+00 0.0000000000000000e+00 -1.8134111974935227e-01  8.0540142242263499e+00 0.0000000000000000e+00 -1.8994101626188753e-01  7.9567448066575226e+00 0.0000000000000000e+00 -1.8204208850338882e-01  7.8572967658896973e+00 0.0000000000000000e+00 -1.7445678178484200e-01  7.7590761468584546e+00 0.0000000000000000e+00 -1.6129065733158063e-01  7.6608459628307557e+00 0.0000000000000000e+00 -1.5272119948752644e-01  7.5616553951199936e+00 0.0000000000000000e+00 -1.5345818266352584e-01  7.4640328935060367e+00 0.0000000000000000e+00 -1.4397698424896455e-01  7.3639425305753585e+00 0.0000000000000000e+00 -1.3188321871012171e-01  7.2624617611747571e+00 0.0000000000000000e+00 -1.2937753199787094e-01  7.1621296862656658e+00 0.0000000000000000e+00 -1.3087953157859145e-01  7.0633877585609044e+00 0.0000000000000000e+00 -1.3320739176238008e-01  6.9622729643822163e+00 0.0000000000000000e+00 -1.2847629550583570e-01  6.8680032832286013e+00 0.0000000000000000e+00 -1.3000728356876781e-01  6.7717918054261164e+00 0.0000000000000000e+00 -1.2733745462730414e-01  6.6729448815243639e+00 0.0000000000000000e+00 -1.1461629804889772e-01  6.5716787391228273e+00 0.0000000000000000e+00 -1.1598123460846212e-01  6.4681793268352745e+00 0.0000000000000000e+00 -1.1366702825540805e-01  6.3692504631234037e+00 0.0000000000000000e+00 -1.1592766172224353e-01  6.2690082543119381e+00 0.0000000000000000e+00 -1.1286330593496441e-01  6.1656992457379749e+00 0.0000000000000000e+00 -1.0334610213573749e-01  6.0653000698019133e+00 0.0000000000000000e+00 -9.6599111310427824e-02  5.9690411104344490e+00 0.0000000000000000e+00 -8.4988989851542934e-02  5.8728670557855276e+00 0.0000000000000000e+00 -8.6375635291937772e-02  5.7769257626265542e+00 0.0000000000000000e+00 -7.8913223683910252e-02  5.6754315434924987e+00 0.0000000000000000e+00 -7.4519675752020328e-02  5.5824234995272661e+00 0.0000000000000000e+00 -8.5821909807823255e-02  5.4844154421583875e+00 0.0000000000000000e+00 -8.7898889027742524e-02  5.3823253891804761e+00 0.0000000000000000e+00 -7.5443491846100316e-02  5.2811922028792466e+00 0.0000000000000000e+00 -7.6860609958749451e-02  5.1831166786336915e+00 0.0000000000000000e+00 -7.4684741544052025e-02  5.0762802167274872e+00 0.0000000000000000e+00 -7.3311187656468296e-02  4.9783377115812550e+00 0.0000000000000000e+00 -7.4790954944302726e-02  4.8799973463672597e+00 0.0000000000000000e+00 -8.7130800578787013e-02  4.7794077550454821e+00 0.0000000000000000e+00 -7.8620202447175450e-02  4.6810032302092273e+00 0.0000000000000000e+00 -8.650081313267904