<?xml version="1.0"?>
<VTKFile type="UnstructuredGrid"  version="0.1"  >
<UnstructuredGrid>
<Piece  NumberOfPoints="3069" NumberOfCells="12882">
<Points>
<DataArray  type="Float64"  NumberOfComponents="3"  format="ascii">0 0 0  0 0 4  0 5.65685415 0  50 0 4  50 5.65685415 0  50 0 0  0 0 1  0 0 2  0 0 3  0 1.04967844 3.90746784  0 2.0669806 3.632725  0 3.02052855 3.18424606  0 3.88091111 2.5758636  0 4.62159061 1.82634306  0 5.21972132 0.958802283  0 4.71404505 0  0 3.77123618 0  0 2.82842708 0  0 1.88561809 0  0 0.942809045 0  0.5 0 4  1 0 4  1.5 0 4  2 0 4  2.5 0 4  3 0 4  3.5 0 4  4 0 4  4.5 0 4  5 0 4  5.5 0 4  6 0 4  6.5 0 4  7 0 4  7.5 0 4  8 0 4  8.5 0 4  9 0 4  9.5 0 4  10 0 4  10.5 0 4  11 0 4  11.5 0 4  12 0 4  12.5 0 4  13 0 4  13.5 0 4  14 0 4  14.5 0 4  15 0 4  15.5 0 4  16 0 4  16.5 0 4  17 0 4  17.5 0 4  18 0 4  18.5 0 4  19 0 4  19.5 0 4  20 0 4  20.5 0 4  21 0 4  21.5 0 4  22 0 4  22.5 0 4  23 0 4  23.5 0 4  24 0 4  24.5 0 4  25 0 4  25.5 0 4  26 0 4  26.5 0 4  27 0 4  27.5 0 4  28 0 4  28.5 0 4  29 0 4  29.5 0 4  30 0 4  30.5 0 4  31 0 4  31.5 0 4  32 0 4  32.5 0 4  33 0 4  33.5 0 4  34 0 4  34.5 0 4  35 0 4  35.5 0 4  36 0 4  36.5 0 4  37 0 4  37.5 0 4  38 0 4  38.5 0 4  39 0 4  39.5 0 4  40 0 4  40.5 0 4  41 0 4  41.5 0 4  42 0 4  42.5 0 4  43 0 4  43.5 0 4  44 0 4  44.5 0 4  45 0 4  45.5 0 4  46 0 4  46.5 0 4  47 0 4  47.5 0 4  48 0 4  48.5 0 4  49 0 4  49.5 0 4  50 1.04967844 3.90746784  50 2.0669806 3.632725  50 3.02052855 3.18424606  50 3.88091111 2.5758636  50 4.62159061 1.82634306  50 5.21972132 0.958802283  49.5 5.65685415 0  49 5.65685415 0  48.5 5.65685415 0  48 5.65685415 0  47.5 5.65685415 0  47 5.65685415 0  46.5 5.65685415 0  46 5.65685415 0  45.5 5.65685415 0  45 5.65685415 0  44.5 5.65685415 0  44 5.65685415 0  43.5 5.65685415 0  43 5.65685415 0  42.5 5.65685415 0  42 5.65685415 0  41.5 5.65685415 0  41 5.65685415 0  40.5 5.65685415 0  40 5.65685415 0  39.5 5.65685415 0  39 5.65685415 0  38.5 5.65685415 0  38 5.65685415 0  37.5 5.65685415 0  37 5.65685415 0  36.5 5.65685415 0  36 5.65685415 0  35.5 5.65685415 0  35 5.65685415 0  34.5 5.65685415 0  34 5.65685415 0  33.5 5.65685415 0  33 5.65685415 0  32.5 5.65685415 0  32 5.65685415 0  31.5 5.65685415 0  31 5.65685415 0  30.5 5.65685415 0  30 5.65685415 0  29.5 5.65685415 0  29 5.65685415 0  28.5 5.65685415 0  28 5.65685415 0  27.5 5.65685415 0  27 5.65685415 0  26.5 5.65685415 0  26 5.65685415 0  25.5 5.65685415 0  25 5.65685415 0  24.5 5.65685415 0  24 5.65685415 0  23.5 5.65685415 0  23 5.65685415 0  22.5 5.65685415 0  22 5.65685415 0  21.5 5.65685415 0  21 5.65685415 0  20.5 5.65685415 0  20 5.65685415 0  19.5 5.65685415 0  19 5.65685415 0  18.5 5.65685415 0  18 5.65685415 0  17.5 5.65685415 0  17 5.65685415 0  16.5 5.65685415 0  16 5.65685415 0  15.5 5.65685415 0  15 5.65685415 0  14.5 5.65685415 0  14 5.65685415 0  13.5 5.65685415 0  13 5.65685415 0  12.5 5.65685415 0  12 5.65685415 0  11.5 5.65685415 0  11 5.65685415 0  10.5 5.65685415 0  10 5.65685415 0  9.5 5.65685415 0  9 5.65685415 0  8.5 5.65685415 0  8 5.65685415 0  7.5 5.65685415 0  7 5.65685415 0  6.5 5.65685415 0  6 5.65685415 0  5.5 5.65685415 0  5 5.65685415 0  4.5 5.65685415 0  4 5.65685415 0  3.5 5.65685415 0  3 5.65685415 0  2.5 5.65685415 0  2 5.65685415 0  1.5 5.65685415 0  1 5.65685415 0  0.5 5.65685415 0  50 4.71404505 0  50 3.77123618 0  50 2.82842708 0  50 1.88561809 0  50 0.942809045 0  49.5 0 0  49 0 0  48.5 0 0  48 0 0  47.5 0 0  47 0 0  46.5 0 0  46 0 0  45.5 0 0  45 0 0  44.5 0 0  44 0 0  43.5 0 0  43 0 0  42.5 0 0  42 0 0  41.5 0 0  41 0 0  40.5 0 0  40 0 0  39.5 0 0  39 0 0  38.5 0 0  38 0 0  37.5 0 0  37 0 0  36.5 0 0  36 0 0  35.5 0 0  35 0 0  34.5 0 0  34 0 0  33.5 0 0  33 0 0  32.5 0 0  32 0 0  31.5 0 0  31 0 0  30.5 0 0  30 0 0  29.5 0 0  29 0 0  28.5 0 0  28 0 0  27.5 0 0  27 0 0  26.5 0 0  26 0 0  25.5 0 0  25 0 0  24.5 0 0  24 0 0  23.5 0 0  23 0 0  22.5 0 0  22 0 0  21.5 0 0  21 0 0  20.5 0 0  20 0 0  19.5 0 0  19 0 0  18.5 0 0  18 0 0  17.5 0 0  17 0 0  16.5 0 0  16 0 0  15.5 0 0  15 0 0  14.5 0 0  14 0 0  13.5 0 0  13 0 0  12.5 0 0  12 0 0  11.5 0 0  11 0 0  10.5 0 0  10 0 0  9.5 0 0  9 0 0  8.5 0 0  8 0 0  7.5 0 0  7 0 0  6.5 0 0  6 0 0  5.5 0 0  5 0 0  4.5 0 0  4 0 0  3.5 0 0  3 0 0  2.5 0 0  2 0 0  1.5 0 0  1 0 0  0.5 0 0  50 0 1  50 0 2  50 0 3  0 2.33524275 0.893602192  0 2.87561393 1.93323028  0 4.2367816 0.876864135  0 2.00050235 2.65534091  0 0.981494486 2.34323239  0 3.78543234 1.61830366  0 3.30545568 0.887000024  0 0.812916458 1.58408713  0 1.71948838 1.71268857  0 1.28267908 0.8650629520000001  0 1.21973121 3.10775328  0.5 5.21972132 0.958802223  0.5 4.62159061 1.82634306  0.5 3.88091111 2.5758636  0.5 3.02052855 3.18424606  0.5 2.0669806 3.632725  0.5 1.04967844 3.90746784  1 5.21972132 0.958802223  1 4.62159061 1.82634306  1 3.88091111 2.5758636  1 3.02052855 3.18424606  1 2.0669806 3.632725  1 1.04967844 3.90746784  1.5 5.21972132 0.958802223  1.5 4.62159061 1.82634306  1.5 3.88091111 2.5758636  1.5 3.02052855 3.18424606  1.5 2.0669806 3.632725  1.5 1.04967844 3.90746784  2 5.21972132 0.958802223  2 4.62159061 1.82634306  2 3.88091111 2.5758636  2 3.02052855 3.18424606  2 2.0669806 3.632725  2 1.04967844 3.90746784  2.5 5.21972132 0.958802223  2.5 4.62159061 1.82634306  2.5 3.88091111 2.5758636  2.5 3.02052855 3.18424606  2.5 2.0669806 3.632725  2.5 1.04967844 3.90746784  3 5.21972132 0.958802223  3 4.62159061 1.82634306  3 3.88091111 2.5758636  3 3.02052855 3.18424606  3 2.0669806 3.632725  3 1.04967844 3.90746784  3.5 5.21972132 0.958802223  3.5 4.62159061 1.82634306  3.5 3.88091111 2.5758636  3.5 3.02052855 3.18424606  3.5 2.0669806 3.632725  3.5 1.04967844 3.90746784  4 5.21972132 0.958802223  4 4.62159061 1.82634306  4 3.88091111 2.5758636  4 3.02052855 3.18424606  4 2.0669806 3.632725  4 1.04967844 3.90746784  4.5 5.21972132 0.958802223  4.5 4.62159061 1.82634306  4.5 3.88091111 2.5758636  4.5 3.02052855 3.18424606  4.5 2.0669806 3.632725  4.5 1.04967844 3.90746784  5 5.21972132 0.958802223  5 4.62159061 1.82634306  5 3.88091111 2.5758636  5 3.02052855 3.18424606  5 2.0669806 3.632725  5 1.04967844 3.90746784  5.5 5.21972132 0.958802223  5.5 4.62159061 1.82634306  5.5 3.88091111 2.5758636  5.5 3.02052855 3.18424606  5.5 2.0669806 3.632725  5.5 1.04967844 3.90746784  6 5.21972132 0.958802223  6 4.62159061 1.82634306  6 3.88091111 2.5758636  6 3.02052855 3.18424606  6 2.0669806 3.632725  6 1.04967844 3.90746784  6.5 5.21972132 0.958802223  6.5 4.62159061 1.82634306  6.5 3.88091111 2.5758636  6.5 3.02052855 3.18424606  6.5 2.0669806 3.632725  6.5 1.04967844 3.90746784  7 5.21972132 0.958802223  7 4.62159061 1.82634306  7 3.88091111 2.5758636  7 3.02052855 3.18424606  7 2.0669806 3.632725  7 1.04967844 3.90746784  7.5 5.21972132 0.958802223  7.5 4.62159061 1.82634306  7.5 3.88091111 2.5758636  7.5 3.02052855 3.18424606  7.5 2.0669806 3.632725  7.5 1.04967844 3.90746784  8 5.21972132 0.958802223  8 4.62159061 1.82634306  8 3.88091111 2.5758636  8 3.02052855 3.18424606  8 2.0669806 3.632725  8 1.04967844 3.90746784  8.5 5.21972132 0.958802223  8.5 4.62159061 1.82634306  8.5 3.88091111 2.5758636  8.5 3.02052855 3.18424606  8.5 2.0669806 3.632725  8.5 1.04967844 3.90746784  9 5.21972132 0.958802223  9 4.62159061 1.82634306  9 3.88091111 2.5758636  9 3.02052855 3.18424606  9 2.0669806 3.632725  9 1.04967844 3.90746784  9.5 5.21972132 0.958802223  9.5 4.62159061 1.82634306  9.5 3.88091111 2.5758636  9.5 3.02052855 3.18424606  9.5 2.0669806 3.632725  9.5 1.04967844 3.90746784  10 5.21972132 0.958802223  10 4.62159061 1.82634306  10 3.88091111 2.5758636  10 3.02052855 3.18424606  10 2.0669806 3.632725  10 1.04967844 3.90746784  10.5 5.21972132 0.958802223  10.5 4.62159061 1.82634306  10.5 3.88091111 2.5758636  10.5 3.02052855 3.18424606  10.5 2.0669806 3.632725  10.5 1.04967844 3.90746784  11 5.21972132 0.958802223  11 4.62159061 1.82634306  11 3.88091111 2.5758636  11 3.02052855 3.18424606  11 2.0669806 3.632725  11 1.04967844 3.90746784  11.5 5.21972132 0.958802223  11.5 4.62159061 1.82634306  11.5 3.88091111 2.5758636  11.5 3.02052855 3.18424606  11.5 2.0669806 3.632725  11.5 1.04967844 3.90746784  12 5.21972132 0.958802223  12 4.62159061 1.82634306  12 3.88091111 2.5758636  12 3.02052855 3.18424606  12 2.0669806 3.632725  12 1.04967844 3.90746784  12.5 5.21972132 0.958802223  12.5 4.62159061 1.82634306  12.5 3.88091111 2.5758636  12.5 3.02052855 3.18424606  12.5 2.0669806 3.632725  12.5 1.04967844 3.90746784  13 5.21972132 0.958802223  13 4.62159061 1.82634306  13 3.88091111 2.5758636  13 3.02052855 3.18424606  13 2.0669806 3.632725  13 1.04967844 3.90746784  13.5 5.21972132 0.958802223  13.5 4.62159061 1.82634306  13.5 3.88091111 2.5758636  13.5 3.02052855 3.18424606  13.5 2.0669806 3.632725  13.5 1.04967844 3.90746784  14 5.21972132 0.958802223  14 4.62159061 1.82634306  14 3.88091111 2.5758636  14 3.02052855 3.18424606  14 2.0669806 3.632725  14 1.04967844 3.90746784  14.5 5.21972132 0.958802223  14.5 4.62159061 1.82634306  14.5 3.88091111 2.5758636  14.5 3.02052855 3.18424606  14.5 2.0669806 3.632725  14.5 1.04967844 3.90746784  15 5.21972132 0.958802223  15 4.62159061 1.82634306  15 3.88091111 2.5758636  15 3.02052855 3.18424606  15 2.0669806 3.632725  15 1.04967844 3.90746784  15.5 5.21972132 0.958802223  15.5 4.62159061 1.82634306  15.5 3.88091111 2.5758636  15.5 3.02052855 3.18424606  15.5 2.0669806 3.632725  15.5 1.04967844 3.90746784  16 5.21972132 0.958802223  16 4.62159061 1.82634306  16 3.88091111 2.5758636  16 3.02052855 3.18424606  16 2.0669806 3.632725  16 1.04967844 3.90746784  16.5 5.21972132 0.958802223  16.5 4.62159061 1.82634306  16.5 3.88091111 2.5758636  16.5 3.02052855 3.18424606  16.5 2.0669806 3.632725  16.5 1.04967844 3.90746784  17 5.21972132 0.958802223  17 4.62159061 1.82634306  17 3.88091111 2.5758636  17 3.02052855 3.18424606  17 2.0669806 3.632725  17 1.04967844 3.90746784  17.5 5.21972132 0.958802223  17.5 4.62159061 1.82634306  17.5 3.88091111 2.5758636  17.5 3.02052855 3.18424606  17.
[...]
<PointData  Vectors="f_261141-0"> 
<DataArray  type="Float64"  Name="f_261141-0"  NumberOfComponents="3" format="ascii">0.0000000000000000e+00 0.0000000000000000e+00 0.0000000000000000e+00  0.0000000000000000e+00 0.0000000000000000e+00 2.7047917665161824e-03  0.0000000000000000e+00 2.6821305999971595e-02 0.0000000000000000e+00  5.2228156849919181e-02 0.0000000000000000e+00 7.2227320284593033e-01  1.8452149337322654e-01 1.7503000331354983e-02 7.3576212009257458e-01  1.7538287034585739e-01 0.0000000000000000e+00 7.2431771176469895e-01  0.0000000000000000e+00 0.0000000000000000e+00 5.8884807109094162e-03  0.0000000000000000e+00 0.0000000000000000e+00 2.5984075615329153e-03  0.0000000000000000e+00 0.0000000000000000e+00 -7.6995527321173406e-04  0.0000000000000000e+00 -3.4129750658370706e-03 3.4684324797594032e-03  0.0000000000000000e+00 -3.2717524896310813e-04 1.0577086247023646e-02  0.0000000000000000e+00 3.4610920573952013e-03 1.0000526982405731e-02  0.0000000000000000e+00 7.1291575313828593e-03 9.4681573523409928e-03  0.0000000000000000e+00 9.2904364477571708e-03 1.2648754529758255e-02  0.0000000000000000e+00 1.5156150305439965e-02 8.9136076347071606e-03  0.0000000000000000e+00 1.4695541485485460e-02 0.0000000000000000e+00  0.0000000000000000e+00 1.1807181238279708e-02 0.0000000000000000e+00  0.0000000000000000e+00 6.3567841719403403e-03 0.0000000000000000e+00  0.0000000000000000e+00 4.1938814847336152e-03 0.0000000000000000e+00  0.0000000000000000e+00 2.3612441659223863e-03 0.0000000000000000e+00  8.2252961813728681e-04 0.0000000000000000e+00 2.8960859973287804e-03  1.1778705817109927e-03 0.0000000000000000e+00 2.4189667520775034e-03  1.5870197993614965e-03 0.0000000000000000e+00 2.7895999697012124e-03  2.2416915205402681e-03 0.0000000000000000e+00 2.9733675598046122e-03  3.2663083369623767e-03 0.0000000000000000e+00 3.6167500919462121e-03  3.4419077678482500e-03 0.0000000000000000e+00 4.3705045035250176e-03  4.2348524432081151e-03 0.0000000000000000e+00 5.4323432083468008e-03  4.5932521266218900e-03 0.0000000000000000e+00 6.6035787112875971e-03  5.0551811974426453e-03 0.0000000000000000e+00 9.1530159874882791e-03  5.8149925154172407e-03 0.0000000000000000e+00 1.1459628244143516e-02  6.4684246856178329e-03 0.0000000000000000e+00 1.3140499071116567e-02  7.6210476136010586e-03 0.0000000000000000e+00 1.3197000552125816e-02  8.0386595088462361e-03 0.0000000000000000e+00 1.5689217536019515e-02  7.7515450860364586e-03 0.0000000000000000e+00 1.8575999400821191e-02  9.3296108153590549e-03 0.0000000000000000e+00 2.0372227785706961e-02  9.4782830126003033e-03 0.0000000000000000e+00 2.3067625947656437e-02  1.0330363299594712e-02 0.0000000000000000e+00 2.6137861011107925e-02  1.1074142341153710e-02 0.0000000000000000e+00 2.8707805931081156e-02  1.1899876307936636e-02 0.0000000000000000e+00 3.0701143363316582e-02  1.2697104959945030e-02 0.0000000000000000e+00 3.3014774863269307e-02  1.3349583915624935e-02 0.0000000000000000e+00 3.5381590799633246e-02  1.4428201623551984e-02 0.0000000000000000e+00 3.9071347009502905e-02  1.4725389863594673e-02 0.0000000000000000e+00 4.1476500119236523e-02  1.5432459491805019e-02 0.0000000000000000e+00 4.5002369301793910e-02  1.6305239108652735e-02 0.0000000000000000e+00 4.8634578362938670e-02  1.7054846209355452e-02 0.0000000000000000e+00 5.2580449944988193e-02  1.6887077193859883e-02 0.0000000000000000e+00 5.7898076493328954e-02  1.7835037967176632e-02 0.0000000000000000e+00 6.0547705398179920e-02  1.8656582758490557e-02 0.0000000000000000e+00 6.4777246597799182e-02  1.8676577814107181e-02 0.0000000000000000e+00 6.9563651253870956e-02  2.0203901891480840e-02 0.0000000000000000e+00 7.1828380876113013e-02  2.1153741907412510e-02 0.0000000000000000e+00 7.6526702978393452e-02  2.1506544020155213e-02 0.0000000000000000e+00 8.1959202724947666e-02  2.2286554308094224e-02 0.0000000000000000e+00 8.6524982483760018e-02  2.3262567639126208e-02 0.0000000000000000e+00 9.2025471213908069e-02  2.4160496108232378e-02 0.0000000000000000e+00 9.6287706531442363e-02  2.4359878383709350e-02 0.0000000000000000e+00 1.0288919313571274e-01  2.5326908389089960e-02 0.0000000000000000e+00 1.0671674743512044e-01  2.6077425167195221e-02 0.0000000000000000e+00 1.1319453215827539e-01  2.6760302996921208e-02 0.0000000000000000e+00 1.1820165498183728e-01  2.7650451058870231e-02 0.0000000000000000e+00 1.2302837232722112e-01  2.7834812330928611e-02 0.0000000000000000e+00 1.2791228462423196e-01  2.8487892378597050e-02 0.0000000000000000e+00 1.3405788663987786e-01  2.8473245716239399e-02 0.0000000000000000e+00 1.4161543290318912e-01  2.9768877552621944e-02 0.0000000000000000e+00 1.4658067867899272e-01  2.9979426653645284e-02 0.0000000000000000e+00 1.5290109082512049e-01  3.0530648511850108e-02 0.0000000000000000e+00 1.5879800759240068e-01  3.0872317618323500e-02 0.0000000000000000e+00 1.6597756568815331e-01  3.1499960647471965e-02 0.0000000000000000e+00 1.7250738406912192e-01  3.2208991252067699e-02 0.0000000000000000e+00 1.7973780147116694e-01  3.2583370191350269e-02 0.0000000000000000e+00 1.8775628033640318e-01  3.3247932118281913e-02 0.0000000000000000e+00 1.9478355615036042e-01  3.3773318226415966e-02 0.0000000000000000e+00 2.0315884698383097e-01  3.4375432763320418e-02 0.0000000000000000e+00 2.1048224442198735e-01  3.5402629353239110e-02 0.0000000000000000e+00 2.1754309287896359e-01  3.5568966574441072e-02 0.0000000000000000e+00 2.2426763007124798e-01  3.6174408996180234e-02 0.0000000000000000e+00 2.3253607677994567e-01  3.6789694276127591e-02 0.0000000000000000e+00 2.4088502481571905e-01  3.7034794971397861e-02 0.0000000000000000e+00 2.4921878949223886e-01  3.7000128385239278e-02 0.0000000000000000e+00 2.5756944562464801e-01  3.7332718449033728e-02 0.0000000000000000e+00 2.6724175371182701e-01  3.8043295156152415e-02 0.0000000000000000e+00 2.7582826515966569e-01  3.8868393028512124e-02 0.0000000000000000e+00 2.8403724650569684e-01  3.9690209435650381e-02 0.0000000000000000e+00 2.9392136641890859e-01  3.9710953273345492e-02 0.0000000000000000e+00 3.0369382361988462e-01  4.0241824771511892e-02 0.0000000000000000e+00 3.1293606420331077e-01  4.0572129029221048e-02 0.0000000000000000e+00 3.2248659180425776e-01  4.1521039014002004e-02 0.0000000000000000e+00 3.3242711436779337e-01  4.2222482877052672e-02 0.0000000000000000e+00 3.4154855898925091e-01  4.2848358660369859e-02 0.0000000000000000e+00 3.5264433340516699e-01  4.2985436039734599e-02 0.0000000000000000e+00 3.6316990908714430e-01  4.3799342436574337e-02 0.0000000000000000e+00 3.7330371108464194e-01  4.4044162012621811e-02 0.0000000000000000e+00 3.8520396607324053e-01  4.5030109765881780e-02 0.0000000000000000e+00 3.9526069542899861e-01  4.5296766811097941e-02 0.0000000000000000e+00 4.0590368431233220e-01  4.6322495253933546e-02 0.0000000000000000e+00 4.1703844934937079e-01  4.6703577260299493e-02 0.0000000000000000e+00 4.2769372900148173e-01  4.7110967030992094e-02 0.0000000000000000e+00 4.3889239091096888e-01  4.7373750460804047e-02 0.0000000000000000e+00 4.5041501937343759e-01  4.7569377672332040e-02 0.0000000000000000e+00 4.6299524630107641e-01  4.8485544055071834e-02 0.0000000000000000e+00 4.7506604865303642e-01  4.8774516097512155e-02 0.0000000000000000e+00 4.8673810918232774e-01  4.9268673008373801e-02 0.0000000000000000e+00 4.9902725176816187e-01  4.9871698480025969e-02 0.0000000000000000e+00 5.1098413672612064e-01  5.0187779617186200e-02 0.0000000000000000e+00 5.2219941627517641e-01  5.0336784978677614e-02 0.0000000000000000e+00 5.3515695991280310e-01  5.0650414558803980e-02 0.0000000000000000e+00 5.4765506189431168e-01  5.1556545472948787e-02 0.0000000000000000e+00 5.5951586735389869e-01  5.1763095952593152e-02 0.0000000000000000e+00 5.7259179045264408e-01  5.2055309875257742e-02 0.0000000000000000e+00 5.8540447967212961e-01  5.1777168338384305e-02 0.0000000000000000e+00 5.9875276877426686e-01  5.1690945093701847e-02 0.0000000000000000e+00 6.1322244379191992e-01  5.2533046032710674e-02 0.0000000000000000e+00 6.2633952600277421e-01  5.2750171214036523e-02 0.0000000000000000e+00 6.3932740747810901e-01  5.3449516539672517e-02 0.0000000000000000e+00 6.5232549687501173e-01  5.3274301760687863e-02 0.0000000000000000e+00 6.6575018181418155e-01  5.3024506081574767e-02 0.0000000000000000e+00 6.7936209491854205e-01  5.2706040800577426e-02 0.0000000000000000e+00 6.9362030523592344e-01  5.2278614222667573e-02 0.0000000000000000e+00 7.0788479495066448e-01  5.6448661304330315e-02 -1.1603688001550450e-03 7.2192445778170566e-01  6.6289087027974633e-02 -2.1305934800133564e-03 7.2312034856378382e-01  7.9687032028327290e-02 -2.6465767284969831e-03 7.2473977775166187e-01  9.9011503590412261e-02 -2.4832620901228675e-03 7.2772851635648095e-01  1.1963236608869039e-01 -1.0666604405737077e-04 7.3243666721640222e-01  1.4890818144987833e-01 4.1425441125464623e-03 7.3672074731551429e-01  1.8189327736636227e-01 1.7867554621627053e-02 7.1942769408422469e-01  1.7935945039650561e-01 1.8497599812753479e-02 7.0263824119612872e-01  1.7730031346677386e-01 2.0027421684233215e-02 6.8661795330107067e-01  1.7597914467801187e-01 2.1783315153145865e-02 6.6958446971267516e-01  1.7359666355978459e-01 2.4418135270646141e-02 6.5426990933740481e-01  1.7070090990023862e-01 2.5269874383261368e-02 6.3940561320007705e-01  1.6763517037633260e-01 2.5843698041047383e-02 6.2511097323511100e-01  1.6545368992896800e-01 2.6623118099822127e-02 6.1085993173748021e-01  1.6312234960365279e-01 2.6926135258806119e-02 5.9729323686069469e-01  1.6089977520611404e-01 2.7712535978884761e-02 5.8337530366645640e-01  1.5844973895734635e-01 2.7684120260951177e-02 5.6991112599419180e-01  1.5602555279470004e-01 2.6280214062395033e-02 5.5752474752416192e-01  1.5397039957582634e-01 2.6035066835328410e-02 5.4343000521425333e-01  1.5225097210350350e-01 2.5287527316429675e-02 5.2991899676242082e-01  1.4962970298311079e-01 2.4199968154737433e-02 5.1881079817853315e-01  1.4937192090134235e-01 2.5702147939653863e-02 5.0699352750955384e-01  1.4706591279098979e-01 2.6062011346410591e-02 4.9288395173690674e-01  1.4522872569512910e-01 2.4679508197489500e-02 4.7988985268430817e-01  1.4273999151106068e-01 2.3712176132382665e-02 4.6806982335111286e-01  1.4050264189549924e-01 2.3750200018207174e-02 4.5611771199473022e-01  1.3874677584372649e-01 2.3632698646949481e-02 4.4408729273931435e-01  1.3784147963562637e-01 2.3788571881898871e-02 4.3137279644649501e-01  1.3646825432359996e-01 2.3563449973974526e-02 4.2011238096423592e-01  1.3446690627783195e-01 2.4605398226079805e-02 4.0872682750408867e-01  1.3259957385155849e-01 2.4468847606529311e-02 3.9829358714031821e-01  1.3094005503078049e-01 2.4653334061222425e-02 3.8713912559358360e-01  1.2944971463822910e-01 2.3756774927326047e-02 3.7627864736987404e-01  1.2772581268581748e-01 2.3495860947806608e-02 3.6650370466080001e-01  1.2627526511522935e-01 2.3150034219005210e-02 3.5569023369638403e-01  1.2418085469876765e-01 2.3045001167564524e-02 3.4562876105209611e-01  1.2285177477940656e-01 2.4129016638309086e-02 3.3526293484185876e-01  1.2130294985629975e-01 2.3706077075755130e-02 3.2567548610429020e-01  1.1954726883781200e-01 2.4095658727023798e-02 3.1582059935444801e-01  1.1805180064225358e-01 2.4115649870705764e-02 3.0624154153468769e-01  1.1607242564461957e-01 2.5165292619114519e-02 2.9673739202901528e-01  1.1445527796285537e-01 2.5259805253352665e-02 2.8770085513140253e-01  1.1217981045040716e-01 2.5406565774619878e-02 2.7929106567730888e-01  1.1050327306730218e-01 2.5015006970605890e-02 2.6989564091441687e-01  1.0919994594849525e-01 2.3974331254168538e-02 2.6106345982773010e-01  1.0686693610460385e-01 2.4486277617808406e-02 2.5278182076868710e-01  1.0521060961413164e-01 2.5412027337540742e-02 2.4387176967634638e-01  1.0328060132357664e-01 2.4194031296666606e-02 2.3553478947200257e-01  1.0151782118927419e-01 2.5329663549041804e-02 2.2629648166870120e-01  9.9499570511235924e-02 2.4996572473529630e-02 2.1848382287465831e-01  9.7544190742222731e-02 2.4695445761650496e-02 2.1069967279142751e-01  9.5630838736932566e-02 2.4865520440195236e-02 2.0191278917370856e-01  9.3596285804389640e-02 2.4855966511465252e-02 1.9399836058324749e-01  9.1877286774304567e-02 2.4131426261887780e-02 1.8585573183152659e-01  9.0314958794882411e-02 2.4332315683152164e-02 1.7827847981990316e-01  8.8508974963376119e-02 2.3935576584776661e-02 1.7096047085244107e-01  8.6519277671205125e-02 2.4030125858295087e-02 1.6397367058450682e-01  8.5257112808110991e-02 2.3447058713290427e-02 1.5740767714026185e-01  8.3583705184024595e-02 2.3697975453539393e-02 1.5005296001429783e-01  8.2148691006684996e-02 2.2746141923438528e-02 1.4532243259231969e-01  8.0214699608140386e-02 2.4199792883758196e-02 1.3948243049221026e-01  7.8442382143619968e-02 2.4362579914431713e-02 1.3281653142051594e-01  7.7280675925031891e-02 2.3803494534112842e-02 1.2590982656357341e-01  7.5332522729453316e-02 2.3475125908643452e-02 1.2036679337221064e-01  7.3226031424768565e-02 2.4334750798895254e-02 1.1421593360669909e-01  7.1045772493948570e-02 2.4284455195632819e-02 1.0921663047858682e-01  6.9433905009683480e-02 2.3797299126713727e-02 1.0354635712118190e-01  6.7282216013126478e-02 2.3589574790474667e-02 9.8994324453476015e-02  6.5711490271997908e-02 2.3850821929496314e-02 9.2728743972136859e-02  6.3342907271531440e-02 2.3725516804933351e-02 8.8428207451403937e-02  6.1821557289145575e-02 2.3769386097406923e-02 8.2957205487188920e-02  6.0368938706990567e-02 2.4828432526221630e-02 7.7481426595448891e-02  5.8460440046218518e-02 2.4171515177633336e-02 7.4014050444908691e-02  5.6534528124759564e-02 2.4442720083751132e-02 7.0130549272081996e-02  5.4583539840614918e-02 2.4460380789591483e-02 6.5876362032267460e-02  5.2720095586860707e-02 2.4530119628879583e-02 6.1850838495786112e-02  5.1286385826479611e-02 2.4734052830235439e-02 5.7173348697460685e-02  4.9642126219745217e-02 2.4272899776447726e-02 5.3475418213957682e-02  4.7592643649212667e-02 2.4184363518245107e-02 5.0014848599967639e-02  4.6200763675948102e-02 2.4145651652782953e-02 4.6070382043009242e-02  4.4709646904059513e-02 2.4067785867105194e-02 4.2447206137864069e-02  4.3284326509306824e-02 2.4505509122008329e-02 3.8277508236793975e-02  4.1163803758591425e-02 2.4293722231544117e-02 3.5262093282278709e-02  3.8631666293443362e-02 2.4626728451069051e-02 3.1950764390176432e-02  3.7055761239453741e-02 2.4346578419090232e-02 2.9233507544035104e-02  3.5566533463941258e-02 2.5396981668104571e-02 2.5323974031324626e-02  3.3896173930866004e-02 2.4456911438501983e-02 2.3246537579789232e-02  3.2183429953265098e-02 2.4104185896245845e-02 2.0250419988677531e-02  3.0344362194723966e-02 2.5113788910360230e-02 1.6873053204981333e-02  2.8484467013791506e-02 2.4570646934673614e-02 1.5308479494004630e-02  2.6063567418663534e-02 2.4937154375190021e-02 1.4511972466890679e-02  2.4398965731313650e-02 2.5438136060558683e-02 1.1882829900498089e-02  2.3031702741935074e-02 2.5929666064264702e-02 9.0955899705295433e-03  2.1082925130902680e-02 2.4883431600213547e-02 8.7087588102987348e-03  1.9632860021651641e-02 2.5699108403672340e-02 6.6814140451454344e-03  1.8025525672911435e-02 2.5147008688626644e-02 5.4139286372800769e-03  1.6086809615537198e-02 2.5444854220039798e-02 4.3570079774926445e-03  1.4411558187244111e-02 2.5812309018426113e-02 3.0488222749823126e-03  1.2589722443271691e-02 2.6053552411491827e-02 2.3082201278007753e-03  1.1207068109866330e-02 2.5673867334621188e-02 1.6194531321340815e-04  9.2979393687091499e-03 2.5689419447269365e-02 -3.1336098788185796e-04  7.4772424504944441e-03 2.5372041585259301e-02 -4.2575362910735141e-04  5.8904715695333046e-03 2.6963483618839539e-02 -7.4176052290134869e-04  3.5980891840082371e-03 2.7412629652311060e-02 0.0000000000000000e+00  1.7523388485926356e-03 2.6557336861766777e-02 0.0000000000000000e+00  1.8424214265366187e-01 1.1097912539003585e-02 7.3141140847231823e-01  1.8112393880574879e-01 7.0395042263738253e-03 7.2853154544844079e-01  1.7757819480451131e-01 4.3617335561294259e-03 7.2519233414499484e-01  1.8028032078733500e-01 3.4392881885661843e-03 7.2661575980183091e-01  1.7706880701299629e-01 1.1046883395477720e-03 7.2541210574535753e-01  1.7197835685716067e-01 0.0000000000000000e+00 7.0652977383437721e-01  1.6983728240383669e-01 0.0000000000000000e+00 6.9236602247910117e-01  1.6760818361435934e-01 0.0000000000000000e+00 6.7674287887166251e-01  1.6577970828363853e-01 0.0000000000000000e+00 6.6272735130240112e-01  1.6302575606145606e-01 0.0000000000000000e+00 6.5047716975357117e-01  1.6199006529834212e-01 0.0000000000000000e+00 6.3599992963162699e-01  1.5991386739418764e-01 0.0000000000000000e+00 6.2383180447380882e-01  1.5852730469819779e-01 0.0000000000000000e+00 6.1124717227175596e-01  1.5774946803240053e-01 0.0000000000000000e+00 5.9612162748262565e-01  1.5575057276301124e-01 0.0000000000000000e+00 5.8493189952105518e-01  1.5427584159273044e-01 0.0000000000000000e+00 5.7361322160411909e-01  1.5280852483760174e-01 0.0000000000000000e+00 5.6003142339527590e-01  1.5161612693983362e-01 0.0000000000000000e+00 5.4705784983644457e-01  1.5080193168805353e-01 0.0000000000000000e+00 5.3302840627907933e-01  1.4906501715591827e-01 0.0000000000000000e+00 5.2298150668765142e-01  1.4645398694182191e-01 0.0000000000000000e+00 5.1115976042677713e-01  1.4428615756685684e-01 0.0000000000000000e+00 4.9935797195615322e-01  1.4386877475719761e-01 0.0000000000000000e+00 4.8463283916338651e-01  1.4278941315546503e-01 0.0000000000000000e+00 4.7535156553669417e-01  1.4079538357743718e-01 0.0000000000000000e+00 4.6180172085910054e-01  1.3996089100560166e-01 0.0000000000000000e+00 4.4863158746363591e-01  1.3705895895904333e-01 0.0000000000000000e+00 4.4022533043098450e-01  1.3591285778062348e-01 0.0000000000000000e+00 4.2745662363302617e-01  1.3528916131268584e-01 0.0000000000000000e+00 4.1767818999938205e-01  1.3256793234921924e-01 0.0000000000000000e+00 4.0628610808475679e-01  1.3051251134691058e-01 0.0000000000000000e+00 3.9495032636177207e-01  1.2952421382153637e-01 0.0000000000000000e+00 3.8149961709656860e-01  1.2760849358443555e-01 0.0000000000000000e+00 3.7295743312648288e-01  1.2599410230436178e-01 0.0000000000000000e+00 3.6175003159620339e-01  1.2473874656252422e-01 0.0000000000000000e+00 3.5257902758897841e-01  1.2199968850868581e-01 0.0000000000000000e+00 3.4338173557783175e-01  1.1938829273505715e-01 0.0000000000000000e+00 3.3363406207156138e-01  1.1899840777463989e-01 0.0000000000000000e+00 3.2132343685993309e-01  1.1757929722493558e-01 0.0000000000000000e+00 3.1341740395952206e-01  1.1651747455830122e-01 0.0000000000000000e+00 3.0155237192488166e-01  1.1418605575918787e-01 0.0000000000000000e+00 2.9485716282908425e-01  1.1199905952760013e-01 0.0000000000000000e+00 2.8397835802452981e-01  1.1105261751695937e-01 0.0000000000000000e+00 2.7429297817813186e-01  1.0928387707128256e-01 0.0000000000000000e+00 2.6685625359120252e-01  1.0743671779516568e-01 0.0000000000000000e+00 2.5596773901647207e-01  1.0500446711197046e-01 0.0000000000000000e+00 2.4982163343038780e-01  1.0242040438452331e-01 0.0000000000000000e+00 2.3982850500784408e-01  1.0157427505744901e-01 0.0000000000000000e+00 2.3000526787413053e-01  9.9492573559392089e-02 0.0000000000000000e+00 2.2443069765483911e-01  9.6935763533386052e-02 0.0000000000000000e+00 2.1718188114938558e-01  9.5821389020402326e-02 0.0000000000000000e+00 2.0705318585811033e-01  9.3893535778839465e-02 0.0000000000000000e+00 2.0241352447643385e-01  9.3343773078585157e-02 0.0000000000000000e+00 1.9230873577165214e-01  9.1160839406037961e-02 0.0000000000000000e+00 1.8687521103768656e-01  8.8726608163742920e-02 0.0000000000000000e+00 1.7955427148351058e-01  8.6228977935806958e-02 0.0000000000000000e+00 1.7235228447546053e-01  8.4883664920292104e-02 0.0000000000000000e+00 1.6384396477485816e-01  8.2372433806710443e-02 0.0000000000000000e+00 1.5999972466299814e-01  8.1368643686879003e-02 0.0000000000000000e+00 1.5108465679425503e-01  7.9585240892329087e-02 0.0000000000000000e+00 1.46633191466