<?xml version="1.0"?>
<VTKFile type="UnstructuredGrid"  version="0.1"  >
<UnstructuredGrid>
<Piece  NumberOfPoints="3069" NumberOfCells="12882">
<Points>
<DataArray  type="Float64"  NumberOfComponents="3"  format="ascii">0 0 0  0 0 4  0 5.65685415 0  50 0 4  50 5.65685415 0  50 0 0  0 0 1  0 0 2  0 0 3  0 1.04967844 3.90746784  0 2.0669806 3.632725  0 3.02052855 3.18424606  0 3.88091111 2.5758636  0 4.62159061 1.82634306  0 5.21972132 0.958802283  0 4.71404505 0  0 3.77123618 0  0 2.82842708 0  0 1.88561809 0  0 0.942809045 0  0.5 0 4  1 0 4  1.5 0 4  2 0 4  2.5 0 4  3 0 4  3.5 0 4  4 0 4  4.5 0 4  5 0 4  5.5 0 4  6 0 4  6.5 0 4  7 0 4  7.5 0 4  8 0 4  8.5 0 4  9 0 4  9.5 0 4  10 0 4  10.5 0 4  11 0 4  11.5 0 4  12 0 4  12.5 0 4  13 0 4  13.5 0 4  14 0 4  14.5 0 4  15 0 4  15.5 0 4  16 0 4  16.5 0 4  17 0 4  17.5 0 4  18 0 4  18.5 0 4  19 0 4  19.5 0 4  20 0 4  20.5 0 4  21 0 4  21.5 0 4  22 0 4  22.5 0 4  23 0 4  23.5 0 4  24 0 4  24.5 0 4  25 0 4  25.5 0 4  26 0 4  26.5 0 4  27 0 4  27.5 0 4  28 0 4  28.5 0 4  29 0 4  29.5 0 4  30 0 4  30.5 0 4  31 0 4  31.5 0 4  32 0 4  32.5 0 4  33 0 4  33.5 0 4  34 0 4  34.5 0 4  35 0 4  35.5 0 4  36 0 4  36.5 0 4  37 0 4  37.5 0 4  38 0 4  38.5 0 4  39 0 4  39.5 0 4  40 0 4  40.5 0 4  41 0 4  41.5 0 4  42 0 4  42.5 0 4  43 0 4  43.5 0 4  44 0 4  44.5 0 4  45 0 4  45.5 0 4  46 0 4  46.5 0 4  47 0 4  47.5 0 4  48 0 4  48.5 0 4  49 0 4  49.5 0 4  50 1.04967844 3.90746784  50 2.0669806 3.632725  50 3.02052855 3.18424606  50 3.88091111 2.5758636  50 4.62159061 1.82634306  50 5.21972132 0.958802283  49.5 5.65685415 0  49 5.65685415 0  48.5 5.65685415 0  48 5.65685415 0  47.5 5.65685415 0  47 5.65685415 0  46.5 5.65685415 0  46 5.65685415 0  45.5 5.65685415 0  45 5.65685415 0  44.5 5.65685415 0  44 5.65685415 0  43.5 5.65685415 0  43 5.65685415 0  42.5 5.65685415 0  42 5.65685415 0  41.5 5.65685415 0  41 5.65685415 0  40.5 5.65685415 0  40 5.65685415 0  39.5 5.65685415 0  39 5.65685415 0  38.5 5.65685415 0  38 5.65685415 0  37.5 5.65685415 0  37 5.65685415 0  36.5 5.65685415 0  36 5.65685415 0  35.5 5.65685415 0  35 5.65685415 0  34.5 5.65685415 0  34 5.65685415 0  33.5 5.65685415 0  33 5.65685415 0  32.5 5.65685415 0  32 5.65685415 0  31.5 5.65685415 0  31 5.65685415 0  30.5 5.65685415 0  30 5.65685415 0  29.5 5.65685415 0  29 5.65685415 0  28.5 5.65685415 0  28 5.65685415 0  27.5 5.65685415 0  27 5.65685415 0  26.5 5.65685415 0  26 5.65685415 0  25.5 5.65685415 0  25 5.65685415 0  24.5 5.65685415 0  24 5.65685415 0  23.5 5.65685415 0  23 5.65685415 0  22.5 5.65685415 0  22 5.65685415 0  21.5 5.65685415 0  21 5.65685415 0  20.5 5.65685415 0  20 5.65685415 0  19.5 5.65685415 0  19 5.65685415 0  18.5 5.65685415 0  18 5.65685415 0  17.5 5.65685415 0  17 5.65685415 0  16.5 5.65685415 0  16 5.65685415 0  15.5 5.65685415 0  15 5.65685415 0  14.5 5.65685415 0  14 5.65685415 0  13.5 5.65685415 0  13 5.65685415 0  12.5 5.65685415 0  12 5.65685415 0  11.5 5.65685415 0  11 5.65685415 0  10.5 5.65685415 0  10 5.65685415 0  9.5 5.65685415 0  9 5.65685415 0  8.5 5.65685415 0  8 5.65685415 0  7.5 5.65685415 0  7 5.65685415 0  6.5 5.65685415 0  6 5.65685415 0  5.5 5.65685415 0  5 5.65685415 0  4.5 5.65685415 0  4 5.65685415 0  3.5 5.65685415 0  3 5.65685415 0  2.5 5.65685415 0  2 5.65685415 0  1.5 5.65685415 0  1 5.65685415 0  0.5 5.65685415 0  50 4.71404505 0  50 3.77123618 0  50 2.82842708 0  50 1.88561809 0  50 0.942809045 0  49.5 0 0  49 0 0  48.5 0 0  48 0 0  47.5 0 0  47 0 0  46.5 0 0  46 0 0  45.5 0 0  45 0 0  44.5 0 0  44 0 0  43.5 0 0  43 0 0  42.5 0 0  42 0 0  41.5 0 0  41 0 0  40.5 0 0  40 0 0  39.5 0 0  39 0 0  38.5 0 0  38 0 0  37.5 0 0  37 0 0  36.5 0 0  36 0 0  35.5 0 0  35 0 0  34.5 0 0  34 0 0  33.5 0 0  33 0 0  32.5 0 0  32 0 0  31.5 0 0  31 0 0  30.5 0 0  30 0 0  29.5 0 0  29 0 0  28.5 0 0  28 0 0  27.5 0 0  27 0 0  26.5 0 0  26 0 0  25.5 0 0  25 0 0  24.5 0 0  24 0 0  23.5 0 0  23 0 0  22.5 0 0  22 0 0  21.5 0 0  21 0 0  20.5 0 0  20 0 0  19.5 0 0  19 0 0  18.5 0 0  18 0 0  17.5 0 0  17 0 0  16.5 0 0  16 0 0  15.5 0 0  15 0 0  14.5 0 0  14 0 0  13.5 0 0  13 0 0  12.5 0 0  12 0 0  11.5 0 0  11 0 0  10.5 0 0  10 0 0  9.5 0 0  9 0 0  8.5 0 0  8 0 0  7.5 0 0  7 0 0  6.5 0 0  6 0 0  5.5 0 0  5 0 0  4.5 0 0  4 0 0  3.5 0 0  3 0 0  2.5 0 0  2 0 0  1.5 0 0  1 0 0  0.5 0 0  50 0 1  50 0 2  50 0 3  0 2.33524275 0.893602192  0 2.87561393 1.93323028  0 4.2367816 0.876864135  0 2.00050235 2.65534091  0 0.981494486 2.34323239  0 3.78543234 1.61830366  0 3.30545568 0.887000024  0 0.812916458 1.58408713  0 1.71948838 1.71268857  0 1.28267908 0.8650629520000001  0 1.21973121 3.10775328  0.5 5.21972132 0.958802223  0.5 4.62159061 1.82634306  0.5 3.88091111 2.5758636  0.5 3.02052855 3.18424606  0.5 2.0669806 3.632725  0.5 1.04967844 3.90746784  1 5.21972132 0.958802223  1 4.62159061 1.82634306  1 3.88091111 2.5758636  1 3.02052855 3.18424606  1 2.0669806 3.632725  1 1.04967844 3.90746784  1.5 5.21972132 0.958802223  1.5 4.62159061 1.82634306  1.5 3.88091111 2.5758636  1.5 3.02052855 3.18424606  1.5 2.0669806 3.632725  1.5 1.04967844 3.90746784  2 5.21972132 0.958802223  2 4.62159061 1.82634306  2 3.88091111 2.5758636  2 3.02052855 3.18424606  2 2.0669806 3.632725  2 1.04967844 3.90746784  2.5 5.21972132 0.958802223  2.5 4.62159061 1.82634306  2.5 3.88091111 2.5758636  2.5 3.02052855 3.18424606  2.5 2.0669806 3.632725  2.5 1.04967844 3.90746784  3 5.21972132 0.958802223  3 4.62159061 1.82634306  3 3.88091111 2.5758636  3 3.02052855 3.18424606  3 2.0669806 3.632725  3 1.04967844 3.90746784  3.5 5.21972132 0.958802223  3.5 4.62159061 1.82634306  3.5 3.88091111 2.5758636  3.5 3.02052855 3.18424606  3.5 2.0669806 3.632725  3.5 1.04967844 3.90746784  4 5.21972132 0.958802223  4 4.62159061 1.82634306  4 3.88091111 2.5758636  4 3.02052855 3.18424606  4 2.0669806 3.632725  4 1.04967844 3.90746784  4.5 5.21972132 0.958802223  4.5 4.62159061 1.82634306  4.5 3.88091111 2.5758636  4.5 3.02052855 3.18424606  4.5 2.0669806 3.632725  4.5 1.04967844 3.90746784  5 5.21972132 0.958802223  5 4.62159061 1.82634306  5 3.88091111 2.5758636  5 3.02052855 3.18424606  5 2.0669806 3.632725  5 1.04967844 3.90746784  5.5 5.21972132 0.958802223  5.5 4.62159061 1.82634306  5.5 3.88091111 2.5758636  5.5 3.02052855 3.18424606  5.5 2.0669806 3.632725  5.5 1.04967844 3.90746784  6 5.21972132 0.958802223  6 4.62159061 1.82634306  6 3.88091111 2.5758636  6 3.02052855 3.18424606  6 2.0669806 3.632725  6 1.04967844 3.90746784  6.5 5.21972132 0.958802223  6.5 4.62159061 1.82634306  6.5 3.88091111 2.5758636  6.5 3.02052855 3.18424606  6.5 2.0669806 3.632725  6.5 1.04967844 3.90746784  7 5.21972132 0.958802223  7 4.62159061 1.82634306  7 3.88091111 2.5758636  7 3.02052855 3.18424606  7 2.0669806 3.632725  7 1.04967844 3.90746784  7.5 5.21972132 0.958802223  7.5 4.62159061 1.82634306  7.5 3.88091111 2.5758636  7.5 3.02052855 3.18424606  7.5 2.0669806 3.632725  7.5 1.04967844 3.90746784  8 5.21972132 0.958802223  8 4.62159061 1.82634306  8 3.88091111 2.5758636  8 3.02052855 3.18424606  8 2.0669806 3.632725  8 1.04967844 3.90746784  8.5 5.21972132 0.958802223  8.5 4.62159061 1.82634306  8.5 3.88091111 2.5758636  8.5 3.02052855 3.18424606  8.5 2.0669806 3.632725  8.5 1.04967844 3.90746784  9 5.21972132 0.958802223  9 4.62159061 1.82634306  9 3.88091111 2.5758636  9 3.02052855 3.18424606  9 2.0669806 3.632725  9 1.04967844 3.90746784  9.5 5.21972132 0.958802223  9.5 4.62159061 1.82634306  9.5 3.88091111 2.5758636  9.5 3.02052855 3.18424606  9.5 2.0669806 3.632725  9.5 1.04967844 3.90746784  10 5.21972132 0.958802223  10 4.62159061 1.82634306  10 3.88091111 2.5758636  10 3.02052855 3.18424606  10 2.0669806 3.632725  10 1.04967844 3.90746784  10.5 5.21972132 0.958802223  10.5 4.62159061 1.82634306  10.5 3.88091111 2.5758636  10.5 3.02052855 3.18424606  10.5 2.0669806 3.632725  10.5 1.04967844 3.90746784  11 5.21972132 0.958802223  11 4.62159061 1.82634306  11 3.88091111 2.5758636  11 3.02052855 3.18424606  11 2.0669806 3.632725  11 1.04967844 3.90746784  11.5 5.21972132 0.958802223  11.5 4.62159061 1.82634306  11.5 3.88091111 2.5758636  11.5 3.02052855 3.18424606  11.5 2.0669806 3.632725  11.5 1.04967844 3.90746784  12 5.21972132 0.958802223  12 4.62159061 1.82634306  12 3.88091111 2.5758636  12 3.02052855 3.18424606  12 2.0669806 3.632725  12 1.04967844 3.90746784  12.5 5.21972132 0.958802223  12.5 4.62159061 1.82634306  12.5 3.88091111 2.5758636  12.5 3.02052855 3.18424606  12.5 2.0669806 3.632725  12.5 1.04967844 3.90746784  13 5.21972132 0.958802223  13 4.62159061 1.82634306  13 3.88091111 2.5758636  13 3.02052855 3.18424606  13 2.0669806 3.632725  13 1.04967844 3.90746784  13.5 5.21972132 0.958802223  13.5 4.62159061 1.82634306  13.5 3.88091111 2.5758636  13.5 3.02052855 3.18424606  13.5 2.0669806 3.632725  13.5 1.04967844 3.90746784  14 5.21972132 0.958802223  14 4.62159061 1.82634306  14 3.88091111 2.5758636  14 3.02052855 3.18424606  14 2.0669806 3.632725  14 1.04967844 3.90746784  14.5 5.21972132 0.958802223  14.5 4.62159061 1.82634306  14.5 3.88091111 2.5758636  14.5 3.02052855 3.18424606  14.5 2.0669806 3.632725  14.5 1.04967844 3.90746784  15 5.21972132 0.958802223  15 4.62159061 1.82634306  15 3.88091111 2.5758636  15 3.02052855 3.18424606  15 2.0669806 3.632725  15 1.04967844 3.90746784  15.5 5.21972132 0.958802223  15.5 4.62159061 1.82634306  15.5 3.88091111 2.5758636  15.5 3.02052855 3.18424606  15.5 2.0669806 3.632725  15.5 1.04967844 3.90746784  16 5.21972132 0.958802223  16 4.62159061 1.82634306  16 3.88091111 2.5758636  16 3.02052855 3.18424606  16 2.0669806 3.632725  16 1.04967844 3.90746784  16.5 5.21972132 0.958802223  16.5 4.62159061 1.82634306  16.5 3.88091111 2.5758636  16.5 3.02052855 3.18424606  16.5 2.0669806 3.632725  16.5 1.04967844 3.90746784  17 5.21972132 0.958802223  17 4.62159061 1.82634306  17 3.88091111 2.5758636  17 3.02052855 3.18424606  17 2.0669806 3.632725  17 1.04967844 3.90746784  17.5 5.21972132 0.958802223  17.5 4.62159061 1.82634306  17.5 3.88091111 2.5758636  17.5 3.02052855 3.18424606  17.
[...]
<PointData  Vectors="f_261141-0"> 
<DataArray  type="Float64"  Name="f_261141-0"  NumberOfComponents="3" format="ascii">0.0000000000000000e+00 0.0000000000000000e+00 0.0000000000000000e+00  0.0000000000000000e+00 0.0000000000000000e+00 -4.3737263957159208e-05  0.0000000000000000e+00 6.4255214416049529e-04 0.0000000000000000e+00  2.5261839946636496e-05 0.0000000000000000e+00 1.7610725635814579e-02  3.1117379981740979e-03 6.9792507706814425e-04 1.7811579729111050e-02  3.5532802632244568e-03 0.0000000000000000e+00 1.7905077766029290e-02  0.0000000000000000e+00 0.0000000000000000e+00 2.8604392758620244e-04  0.0000000000000000e+00 0.0000000000000000e+00 1.9335170712455067e-04  0.0000000000000000e+00 0.0000000000000000e+00 -6.5876896592203102e-06  0.0000000000000000e+00 -3.5852239238131874e-04 -3.0973424921335643e-04  0.0000000000000000e+00 -8.7677556325164573e-05 -3.8103934585562929e-06  0.0000000000000000e+00 4.7547084612878570e-06 3.2068958003678724e-04  0.0000000000000000e+00 1.7515298939903452e-04 3.0629989837143421e-04  0.0000000000000000e+00 -1.3337168992514221e-04 5.5629875555851722e-04  0.0000000000000000e+00 -2.3217870306531488e-04 4.4525722834637833e-04  0.0000000000000000e+00 3.0147213774920761e-04 0.0000000000000000e+00  0.0000000000000000e+00 5.8701059057995300e-04 0.0000000000000000e+00  0.0000000000000000e+00 3.4887930755478157e-04 0.0000000000000000e+00  0.0000000000000000e+00 1.3612332877214919e-04 0.0000000000000000e+00  0.0000000000000000e+00 -4.2554488097124133e-05 0.0000000000000000e+00  8.2096137982276112e-05 0.0000000000000000e+00 -7.5859526623828712e-05  1.1990870192658076e-04 0.0000000000000000e+00 -2.4950299213642377e-04  5.5681310676255675e-05 0.0000000000000000e+00 -3.0272136250790519e-04  6.0246660220157095e-05 0.0000000000000000e+00 -2.5229551230028188e-04  1.1872737142742398e-04 0.0000000000000000e+00 -2.8864528965508786e-04  4.1329799536279289e-05 0.0000000000000000e+00 -2.7650117441438041e-04  3.0957834961039255e-05 0.0000000000000000e+00 -2.7032310799752780e-04  -6.2454027025085615e-05 0.0000000000000000e+00 -2.6799960346937825e-04  -8.8121113646747942e-05 0.0000000000000000e+00 -1.8411867040819764e-04  -1.1663991527904302e-04 0.0000000000000000e+00 1.9068440423049645e-04  -8.9898311979543069e-05 0.0000000000000000e+00 1.2225112195288733e-04  -2.9138913420606779e-05 0.0000000000000000e+00 1.8858446312495345e-05  -4.4821311746766006e-05 0.0000000000000000e+00 2.9815046688927069e-04  -1.2216834252692666e-04 0.0000000000000000e+00 4.1114541048354811e-04  2.3017858696471351e-05 0.0000000000000000e+00 3.6208719841432341e-04  -4.6704695013913126e-05 0.0000000000000000e+00 5.2492108078102773e-04  3.2643993981625644e-05 0.0000000000000000e+00 6.4191069563463332e-04  2.9929895202165053e-05 0.0000000000000000e+00 7.2339132542250631e-04  4.7102831451078543e-05 0.0000000000000000e+00 6.4027962724145962e-04  5.7857164340706461e-05 0.0000000000000000e+00 8.0060181509532995e-04  3.0450981555082678e-05 0.0000000000000000e+00 6.7874040909233341e-04  1.2026625730272287e-04 0.0000000000000000e+00 8.8597765319479256e-04  5.5489733730123842e-05 0.0000000000000000e+00 8.0241489229213622e-04  7.7986136609231233e-05 0.0000000000000000e+00 9.6802106295793846e-04  1.3097700276622998e-04 0.0000000000000000e+00 1.0790915269762815e-03  9.3682002996915638e-05 0.0000000000000000e+00 1.2983613058298584e-03  3.1082467925147466e-06 0.0000000000000000e+00 1.5168531446493492e-03  2.4967460766733788e-05 0.0000000000000000e+00 1.4355840389230746e-03  4.2201475573799049e-05 0.0000000000000000e+00 1.7617815683668215e-03  -1.8188488872987403e-05 0.0000000000000000e+00 1.8483047576926517e-03  1.1687658745327279e-04 0.0000000000000000e+00 1.6373312752715045e-03  1.2835159223031361e-04 0.0000000000000000e+00 1.7778035634296357e-03  8.6428157851664242e-05 0.0000000000000000e+00 1.8690830709604451e-03  7.3259845494285151e-05 0.0000000000000000e+00 1.9797108295174209e-03  1.8378051378395167e-04 0.0000000000000000e+00 2.1333082746339085e-03  2.3343989283890952e-04 0.0000000000000000e+00 2.0554232818363587e-03  2.0216769299589307e-04 0.0000000000000000e+00 2.3696928846570131e-03  2.4712853950242325e-04 0.0000000000000000e+00 2.3984590459792928e-03  2.2396714956591894e-04 0.0000000000000000e+00 2.6769149580820194e-03  3.0932624135428255e-04 0.0000000000000000e+00 2.7241014072329466e-03  4.1242902340397729e-04 0.0000000000000000e+00 2.7097685181554391e-03  2.7589181039281384e-04 0.0000000000000000e+00 2.8244533609497421e-03  3.1316116001705717e-04 0.0000000000000000e+00 2.8843612701530304e-03  1.8750225896558851e-04 0.0000000000000000e+00 3.1934087632881042e-03  3.4545907971644081e-04 0.0000000000000000e+00 3.0192284397276559e-03  3.1539998793982165e-04 0.0000000000000000e+00 3.2269356394628874e-03  2.6459089866350265e-04 0.0000000000000000e+00 3.3090195063734777e-03  1.6990566327705750e-04 0.0000000000000000e+00 3.5789606553637077e-03  1.9568049672621552e-04 0.0000000000000000e+00 3.6638425728289349e-03  1.7310678827852125e-04 0.0000000000000000e+00 3.8678236136463992e-03  1.4738689232566014e-04 0.0000000000000000e+00 4.1065518231069046e-03  1.3278048720622403e-04 0.0000000000000000e+00 4.3208775033182715e-03  1.7369044602984007e-04 0.0000000000000000e+00 4.7166618766690208e-03  1.6814858751687127e-04 0.0000000000000000e+00 4.7931845102776802e-03  2.4918771817659675e-04 0.0000000000000000e+00 4.8465750972816954e-03  1.9309197157698491e-04 0.0000000000000000e+00 4.9560445997922234e-03  2.3072043791734514e-04 0.0000000000000000e+00 5.0490027380069250e-03  2.8393284993412073e-04 0.0000000000000000e+00 5.2576747999041598e-03  1.4914796519361153e-04 0.0000000000000000e+00 5.5144637727880105e-03  1.1678265711187412e-04 0.0000000000000000e+00 5.5957605243551218e-03  5.8584071456832957e-05 0.0000000000000000e+00 5.8087522665332143e-03  7.2167468732111666e-05 0.0000000000000000e+00 5.9903839686303341e-03  1.2803758137851465e-04 0.0000000000000000e+00 6.1678877182612182e-03  1.5756334184035051e-04 0.0000000000000000e+00 6.4921593333947952e-03  6.5104295389164875e-05 0.0000000000000000e+00 6.8831170504967138e-03  3.7966828178400379e-05 0.0000000000000000e+00 7.1561413517231163e-03  4.8747899759879815e-05 0.0000000000000000e+00 7.3996698478681362e-03  1.1833085723842415e-04 0.0000000000000000e+00 7.5293396800199305e-03  8.0112909955171551e-05 0.0000000000000000e+00 7.7844665558605515e-03  9.1498445178028986e-05 0.0000000000000000e+00 8.1290698924989923e-03  2.2147699708500846e-05 0.0000000000000000e+00 8.3682963488264789e-03  6.0392869168737716e-05 0.0000000000000000e+00 8.6235873104964153e-03  1.1269617441389869e-04 0.0000000000000000e+00 9.0500501866129478e-03  1.5232567844738955e-04 0.0000000000000000e+00 9.2448848298851503e-03  1.6090776494032686e-04 0.0000000000000000e+00 9.3973332699118228e-03  2.1682716130520376e-04 0.0000000000000000e+00 9.7081306309284091e-03  1.8913038786978710e-04 0.0000000000000000e+00 1.0077436044147599e-02  1.8274122961277187e-04 0.0000000000000000e+00 1.0189992895725645e-02  1.2967373430415564e-04 0.0000000000000000e+00 1.0640150661798284e-02  1.0041489147848484e-04 0.0000000000000000e+00 1.0928723242518031e-02  2.0217414365408158e-04 0.0000000000000000e+00 1.1344517012457169e-02  1.7012750424375296e-04 0.0000000000000000e+00 1.1642335619210558e-02  1.5754988087935811e-04 0.0000000000000000e+00 1.1929771473099293e-02  1.8567977596460066e-04 0.0000000000000000e+00 1.2317172411867670e-02  1.9744065779740211e-04 0.0000000000000000e+00 1.2553154572106227e-02  1.4003223548245971e-04 0.0000000000000000e+00 1.2826860933723185e-02  1.9648917367936816e-04 0.0000000000000000e+00 1.3152132428443120e-02  2.9780603488301598e-04 0.0000000000000000e+00 1.3529096788871414e-02  2.7825601431252561e-04 0.0000000000000000e+00 1.3554889773359266e-02  2.6591371746113927e-04 0.0000000000000000e+00 1.3881525598096672e-02  1.0395714732804585e-04 0.0000000000000000e+00 1.4253484874781718e-02  4.0734690784508865e-06 0.0000000000000000e+00 1.4747824778050573e-02  3.0170625839966267e-05 0.0000000000000000e+00 1.5014300449787275e-02  4.2746978748772107e-06 0.0000000000000000e+00 1.5423257171694087e-02  3.0213958963455509e-05 0.0000000000000000e+00 1.5655347840739089e-02  -3.2249496734021330e-05 0.0000000000000000e+00 1.6045347125992739e-02  9.9498754651634262e-06 0.0000000000000000e+00 1.6436402373149462e-02  3.4894026445115461e-05 0.0000000000000000e+00 1.6816657300516756e-02  3.6629961829473670e-05 0.0000000000000000e+00 1.7203334885320682e-02  3.1701411018847749e-04 1.1841347535361235e-05 1.7513839332269052e-02  5.5784146116891610e-04 -2.8129217699950387e-05 1.7543906151546797e-02  7.8718816062498702e-04 -1.0379847377462305e-04 1.7523681364655860e-02  1.4616590429975857e-03 -1.2637080813212179e-04 1.7675787322022900e-02  1.7164854549084198e-03 7.6920423622785168e-05 1.7593413672283280e-02  2.0083923409705820e-03 -7.1608991806348214e-05 1.7713063677462563e-02  2.9869063355032043e-03 6.7165668542894220e-04 1.7308318356819240e-02  2.9333768856887165e-03 5.5897645947088569e-04 1.6769784580225326e-02  2.9109142239869524e-03 3.8087360218128346e-04 1.6475852334191809e-02  2.8861183132847983e-03 4.7771660018480072e-04 1.5984950284959762e-02  2.9389547670897668e-03 6.3893118005856964e-04 1.5647284773371128e-02  2.9233396336799228e-03 5.9745584864840241e-04 1.5284612096272947e-02  2.8805452030911077e-03 6.0353801372142540e-04 1.4864500299307425e-02  2.9714628140225870e-03 6.8449257229159441e-04 1.4518243782171342e-02  2.9442137791018518e-03 8.0654378536171062e-04 1.4310280472835713e-02  2.9151423223320915e-03 1.0205584079760329e-03 1.3980850903702942e-02  2.8389012316428512e-03 9.7976604553123587e-04 1.3682039319368563e-02  2.7690593882726254e-03 8.2417646512028715e-04 1.3477091536356140e-02  2.7634913805907406e-03 8.3396921601150019e-04 1.3020433289770535e-02  2.7577927879245999e-03 7.3033220498947460e-04 1.2620488455702874e-02  2.5338887968718677e-03 5.6435472148989277e-04 1.2536503822512153e-02  2.7158457243777246e-03 7.2380932642739397e-04 1.2333464518713318e-02  2.6232878587578263e-03 7.9377137670476935e-04 1.1980750076665724e-02  2.5226288411476796e-03 7.4276207296322910e-04 1.1572622164547885e-02  2.4154025274932102e-03 6.0945539492921201e-04 1.1306006911703765e-02  2.3638881491767618e-03 5.8256684316707074e-04 1.1071407462787772e-02  2.3036725257758683e-03 7.4208819270236027e-04 1.0785202988538176e-02  2.4143689390303674e-03 6.5616882073549546e-04 1.0468939757179090e-02  2.4154735763815770e-03 7.2880465043519138e-04 1.0232671888201681e-02  2.3870186408125067e-03 7.7527288328043059e-04 9.9853302318287304e-03  2.3349871105353714e-03 7.3967317680017155e-04 9.8168560576358879e-03  2.3316176151400247e-03 8.4415377610695111e-04 9.4176014768693195e-03  2.3309368958151773e-03 6.6817832449826990e-04 9.0453623196852014e-03  2.2774951570745240e-03 5.3509035921239876e-04 8.8575583382886521e-03  2.2746456958735329e-03 6.1390304044846810e-04 8.4217820240679725e-03  2.1862303140252554e-03 4.5094768092083755e-04 8.1971876893423296e-03  2.1909143351398017e-03 6.0272627235156550e-04 7.8668520975651839e-03  2.1879429167952825e-03 6.4167800868403842e-04 7.6496987128174179e-03  2.1718680473463100e-03 6.5327425767719471e-04 7.3229131556563059e-03  2.1512326512805008e-03 5.8937154476880753e-04 7.0204509186738168e-03  2.0935314568544857e-03 8.2272167065054118e-04 6.7349015407171947e-03  2.0445305339702805e-03 7.0950235607445409e-04 6.5581046897542584e-03  1.9062454611780979e-03 7.6127963228306977e-04 6.4030072800231510e-03  1.8924374580359610e-03 6.6175930014205232e-04 6.1128743408460744e-03  1.9082212773919619e-03 5.7578574797565439e-04 5.8671374627049157e-03  1.7963146051721045e-03 5.0282767586238078e-04 5.5792855905567491e-03  1.8088108166125880e-03 4.9190693662518341e-04 5.3319698808259753e-03  1.7713916783687613e-03 4.8517664251738883e-04 5.0839878641684589e-03  1.8369635979095513e-03 5.7119067981065358e-04 4.7924833811941719e-03  1.7953250265662719e-03 5.1855318961688756e-04 4.7960439597633520e-03  1.7451014744826678e-03 6.7062269584134597e-04 4.6404182150649818e-03  1.6743365514430299e-03 5.9080560104854407e-04 4.3732481031642997e-03  1.5944648673918724e-03 6.3367108910632338e-04 4.1641482694144537e-03  1.5412123495979414e-03 5.5838677973216091e-04 3.8720507413446837e-03  1.5234372767249497e-03 5.4703770100895065e-04 3.6896497980966362e-03  1.4675488792431745e-03 5.6573555327799237e-04 3.5629646377078579e-03  1.4257198075089783e-03 5.1681233275860210e-04 3.4391715102034493e-03  1.4861333059008565e-03 5.2401557374306029e-04 3.3144614052666018e-03  1.4580349646802833e-03 6.4992948573454259e-04 3.1788147317360722e-03  1.4503504092905372e-03 3.9729660473058462e-04 3.2863238163961224e-03  1.3068877127904912e-03 7.9163532660624287e-04 3.1794321802703228e-03  1.2697915528658197e-03 7.9782521013718071e-04 3.0454711873716964e-03  1.3138365212607788e-03 6.3237798507866766e-04 2.8579749504291569e-03  1.2270854475451005e-03 6.6728925915843240e-04 2.7784485109263609e-03  1.1496719770985075e-03 8.3727968782100546e-04 2.5862148729556564e-03  1.0889484130690769e-03 7.2864000830833017e-04 2.6395624959905644e-03  1.0722428381984834e-03 7.0493165047006920e-04 2.5083078784073950e-03  1.0274700298282746e-03 6.2396312624559129e-04 2.4497743636222673e-03  1.0551220774142774e-03 6.5944478943045777e-04 2.1469600107336100e-03  9.3722347672604931e-04 5.6824040760759332e-04 2.1431072860688470e-03  9.9119292909164965e-04 5.7278143067999109e-04 1.8746627809283628e-03  1.0470229643197318e-03 5.1417763992531542e-04 1.7282967795743006e-03  1.0095499716695801e-03 5.5055358983557346e-04 1.6985727980585962e-03  9.1250881469133623e-04 5.7161839753993606e-04 1.6194401196962388e-03  8.7235938561652446e-04 5.7547493792297916e-04 1.5402644090400574e-03  8.3684834399918684e-04 6.2282911227331118e-04 1.5361284508201953e-03  8.6779838896174023e-04 6.9851709704986051e-04 1.4124051884982398e-03  8.4534802272127354e-04 5.8748160051866880e-04 1.4215827811809797e-03  7.2537867494660939e-04 6.7594185935278858e-04 1.3807689921473826e-03  7.8312804898033358e-04 5.7490634971556610e-04 1.3383395799921229e-03  7.7420574234001241e-04 6.7178880626672644e-04 1.2562424422086086e-03  8.3847621943522487e-04 6.4558656201961051e-04 1.0996963307269561e-03  7.4069217944885046e-04 6.5253914771296636e-04 1.0380476099248672e-03  6.2150985064369829e-04 7.3121167298417756e-04 9.3451200103537553e-04  5.9458896937058842e-04 6.6346531502450249e-04 9.1064116499555152e-04  5.5057636196381753e-04 8.3561844965100935e-04 7.0760083005369880e-04  6.0429169497096204e-04 8.0360821731013292e-04 6.7425942209518570e-04  5.6752406259999314e-04 7.1465376007316054e-04 6.0994301492005634e-04  5.2531481875206227e-04 7.6855944441851505e-04 4.8367662612036372e-04  4.6083755360568546e-04 7.0089275465233514e-04 5.3441668047628308e-04  3.2757476708021669e-04 8.6943903804859364e-04 6.7063193700660207e-04  3.1603833914375002e-04 8.7911772695896070e-04 6.2467063542061545e-04  3.7363061393320799e-04 9.5868735092258012e-04 4.6267698276496817e-04  3.5097099018599769e-04 8.3891463878142582e-04 5.2301851524577442e-04  3.5709757760479571e-04 9.2391934768593217e-04 3.8068891960204687e-04  3.7723935821014777e-04 8.7162319404107203e-04 3.3572807280598014e-04  2.2697935429936587e-04 8.0034686565427131e-04 2.5814567732642161e-04  2.5845346053291596e-04 8.6338292551420238e-04 1.6206355418769606e-04  2.1906441360723780e-04 9.5170350154305788e-04 1.1500895422743887e-04  2.8362918897995948e-04 7.1402671020763899e-04 -1.3382240384833893e-04  2.9346810009334232e-04 6.8846334127110962e-04 -1.2841572457765005e-04  2.4657313780348513e-04 6.6034785305361336e-04 -1.2173822886227817e-04  2.8546596025391701e-04 8.3384484411541345e-04 -1.4039709422276011e-04  2.6804552074289484e-04 9.5407543761279038e-04 0.0000000000000000e+00  2.3448668681488188e-04 7.3317343300024302e-04 0.0000000000000000e+00  3.5507305329697592e-03 4.6582618289462704e-04 1.7651495194547836e-02  3.5192816772008310e-03 2.1835079773515332e-04 1.7796164347123604e-02  3.4154884093663112e-03 7.4412815369051863e-05 1.7570055047328319e-02  3.9039742870865561e-03 1.6161155810625106e-04 1.7958212851109982e-02  3.7115293035362637e-03 -1.7330286545200360e-05 1.7940453028377993e-02  3.3774279686551462e-03 0.0000000000000000e+00 1.7314199015054432e-02  3.2986949564621643e-03 0.0000000000000000e+00 1.6758479228702539e-02  3.2417611208284407e-03 0.0000000000000000e+00 1.6130776025143019e-02  3.1650637886307502e-03 0.0000000000000000e+00 1.5726341041079395e-02  2.9472092052976783e-03 0.0000000000000000e+00 1.5781724576786109e-02  3.0230766846784680e-03 0.0000000000000000e+00 1.5255124160372269e-02  2.9371392950991921e-03 0.0000000000000000e+00 1.5110539232996115e-02  2.7938284527419450e-03 0.0000000000000000e+00 1.4890836176872816e-02  2.8934643279801826e-03 0.0000000000000000e+00 1.4244753853724821e-02  2.8533883938180169e-03 0.0000000000000000e+00 1.4094141301330312e-02  2.7570454209006248e-03 0.0000000000000000e+00 1.4091685247634227e-02  2.7652585910273460e-03 0.0000000000000000e+00 1.3597680591033143e-02  2.7170019877883439e-03 0.0000000000000000e+00 1.3327931758721476e-02  2.8365736341782839e-03 0.0000000000000000e+00 1.2739688677792939e-02  2.8215446999220774e-03 0.0000000000000000e+00 1.2673103113355417e-02  2.6367561991899060e-03 0.0000000000000000e+00 1.2438711361735062e-02  2.4257735176183479e-03 0.0000000000000000e+00 1.2264260098858597e-02  2.6244636916685020e-03 0.0000000000000000e+00 1.1495573629798023e-02  2.6893517064300503e-03 0.0000000000000000e+00 1.1420444124947977e-02  2.4576965312755341e-03 0.0000000000000000e+00 1.0890856194286636e-02  2.5826630843038120e-03 0.0000000000000000e+00 1.0262669729578285e-02  2.3078300590270045e-03 0.0000000000000000e+00 1.0623418919206873e-02  2.4271693630974044e-03 0.0000000000000000e+00 1.0128256789623865e-02  2.5923576224199689e-03 0.0000000000000000e+00 1.0044259265644482e-02  2.3648738993422309e-03 0.0000000000000000e+00 9.7216058425727281e-03  2.2102201958544968e-03 0.0000000000000000e+00 9.5054079644448855e-03  2.2739002695090610e-03 0.0000000000000000e+00 8.7677009587216782e-03  2.2137296601919482e-03 0.0000000000000000e+00 8.8482197056083851e-03  2.3569054730659899e-03 0.0000000000000000e+00 8.2913056182373438e-03  2.4339093077165854e-03 0.0000000000000000e+00 8.1806328157844263e-03  2.2418117948947436e-03 0.0000000000000000e+00 7.9131292156332418e-03  1.9689177661079589e-03 0.0000000000000000e+00 7.7870055907959066e-03  2.1400553990213846e-03 0.0000000000000000e+00 7.1604535183316300e-03  2.1416300230935477e-03 0.0000000000000000e+00 7.1772850810491798e-03  2.2128353648132259e-03 0.0000000000000000e+00 6.5828686951173512e-03  2.0818199493918372e-03 0.0000000000000000e+00 6.7600890340945687e-03  1.8824156142204992e-03 0.0000000000000000e+00 6.3168874524277916e-03  2.0347417055868455e-03 0.0000000000000000e+00 5.9363206340855177e-03  2.0222464259615253e-03 0.0000000000000000e+00 6.0852708175170335e-03  2.0678464859214961e-03 0.0000000000000000e+00 5.5459283545707342e-03  1.9233505373837294e-03 0.0000000000000000e+00 5.7098809623868374e-03  1.6248497509529420e-03 0.0000000000000000e+00 5.4069392135323050e-03  1.8200242367052101e-03 0.0000000000000000e+00 4.8693670452625640e-03  1.7874657600962741e-03 0.0000000000000000e+00 5.0442284550219936e-03  1.5845739421774018e-03 0.0000000000000000e+00 4.9152642151079600e-03  1.6656577730597691e-03 0.0000000000000000e+00 4.4417034343265400e-03  1.6811262897631308e-03 0.0000000000000000e+00 4.5920666008054294e-03  1.7866156719169022e-03 0.0000000000000000e+00 4.1334506074352847e-03  1.6972437094294594e-03 0.0000000000000000e+00 4.3033797370928793e-03  1.5572848602431206e-03 0.0000000000000000e+00 4.1230603018978466e-03  1.3388987685801555e-03 0.0000000000000000e+00 3.8010229010710232e-03  1.4231267452225443e-03 0.0000000000000000e+00 3.3454798666421575e-03  1.3064762072259408e-03 0.0000000000000000e+00 3.6630666325794198e-03  1.3758519552803188e-03 0.0000000000000000e+00 3.2446498770536385e-03  1.2750192266772536e-03 0.00000000