<?xml version="1.0"?>
<VTKFile type="UnstructuredGrid"  version="0.1"  >
<UnstructuredGrid>
<Piece  NumberOfPoints="3069" NumberOfCells="12882">
<Points>
<DataArray  type="Float64"  NumberOfComponents="3"  format="ascii">0 0 0  0 0 4  0 5.65685415 0  50 0 4  50 5.65685415 0  50 0 0  0 0 1  0 0 2  0 0 3  0 1.04967844 3.90746784  0 2.0669806 3.632725  0 3.02052855 3.18424606  0 3.88091111 2.5758636  0 4.62159061 1.82634306  0 5.21972132 0.958802283  0 4.71404505 0  0 3.77123618 0  0 2.82842708 0  0 1.88561809 0  0 0.942809045 0  0.5 0 4  1 0 4  1.5 0 4  2 0 4  2.5 0 4  3 0 4  3.5 0 4  4 0 4  4.5 0 4  5 0 4  5.5 0 4  6 0 4  6.5 0 4  7 0 4  7.5 0 4  8 0 4  8.5 0 4  9 0 4  9.5 0 4  10 0 4  10.5 0 4  11 0 4  11.5 0 4  12 0 4  12.5 0 4  13 0 4  13.5 0 4  14 0 4  14.5 0 4  15 0 4  15.5 0 4  16 0 4  16.5 0 4  17 0 4  17.5 0 4  18 0 4  18.5 0 4  19 0 4  19.5 0 4  20 0 4  20.5 0 4  21 0 4  21.5 0 4  22 0 4  22.5 0 4  23 0 4  23.5 0 4  24 0 4  24.5 0 4  25 0 4  25.5 0 4  26 0 4  26.5 0 4  27 0 4  27.5 0 4  28 0 4  28.5 0 4  29 0 4  29.5 0 4  30 0 4  30.5 0 4  31 0 4  31.5 0 4  32 0 4  32.5 0 4  33 0 4  33.5 0 4  34 0 4  34.5 0 4  35 0 4  35.5 0 4  36 0 4  36.5 0 4  37 0 4  37.5 0 4  38 0 4  38.5 0 4  39 0 4  39.5 0 4  40 0 4  40.5 0 4  41 0 4  41.5 0 4  42 0 4  42.5 0 4  43 0 4  43.5 0 4  44 0 4  44.5 0 4  45 0 4  45.5 0 4  46 0 4  46.5 0 4  47 0 4  47.5 0 4  48 0 4  48.5 0 4  49 0 4  49.5 0 4  50 1.04967844 3.90746784  50 2.0669806 3.632725  50 3.02052855 3.18424606  50 3.88091111 2.5758636  50 4.62159061 1.82634306  50 5.21972132 0.958802283  49.5 5.65685415 0  49 5.65685415 0  48.5 5.65685415 0  48 5.65685415 0  47.5 5.65685415 0  47 5.65685415 0  46.5 5.65685415 0  46 5.65685415 0  45.5 5.65685415 0  45 5.65685415 0  44.5 5.65685415 0  44 5.65685415 0  43.5 5.65685415 0  43 5.65685415 0  42.5 5.65685415 0  42 5.65685415 0  41.5 5.65685415 0  41 5.65685415 0  40.5 5.65685415 0  40 5.65685415 0  39.5 5.65685415 0  39 5.65685415 0  38.5 5.65685415 0  38 5.65685415 0  37.5 5.65685415 0  37 5.65685415 0  36.5 5.65685415 0  36 5.65685415 0  35.5 5.65685415 0  35 5.65685415 0  34.5 5.65685415 0  34 5.65685415 0  33.5 5.65685415 0  33 5.65685415 0  32.5 5.65685415 0  32 5.65685415 0  31.5 5.65685415 0  31 5.65685415 0  30.5 5.65685415 0  30 5.65685415 0  29.5 5.65685415 0  29 5.65685415 0  28.5 5.65685415 0  28 5.65685415 0  27.5 5.65685415 0  27 5.65685415 0  26.5 5.65685415 0  26 5.65685415 0  25.5 5.65685415 0  25 5.65685415 0  24.5 5.65685415 0  24 5.65685415 0  23.5 5.65685415 0  23 5.65685415 0  22.5 5.65685415 0  22 5.65685415 0  21.5 5.65685415 0  21 5.65685415 0  20.5 5.65685415 0  20 5.65685415 0  19.5 5.65685415 0  19 5.65685415 0  18.5 5.65685415 0  18 5.65685415 0  17.5 5.65685415 0  17 5.65685415 0  16.5 5.65685415 0  16 5.65685415 0  15.5 5.65685415 0  15 5.65685415 0  14.5 5.65685415 0  14 5.65685415 0  13.5 5.65685415 0  13 5.65685415 0  12.5 5.65685415 0  12 5.65685415 0  11.5 5.65685415 0  11 5.65685415 0  10.5 5.65685415 0  10 5.65685415 0  9.5 5.65685415 0  9 5.65685415 0  8.5 5.65685415 0  8 5.65685415 0  7.5 5.65685415 0  7 5.65685415 0  6.5 5.65685415 0  6 5.65685415 0  5.5 5.65685415 0  5 5.65685415 0  4.5 5.65685415 0  4 5.65685415 0  3.5 5.65685415 0  3 5.65685415 0  2.5 5.65685415 0  2 5.65685415 0  1.5 5.65685415 0  1 5.65685415 0  0.5 5.65685415 0  50 4.71404505 0  50 3.77123618 0  50 2.82842708 0  50 1.88561809 0  50 0.942809045 0  49.5 0 0  49 0 0  48.5 0 0  48 0 0  47.5 0 0  47 0 0  46.5 0 0  46 0 0  45.5 0 0  45 0 0  44.5 0 0  44 0 0  43.5 0 0  43 0 0  42.5 0 0  42 0 0  41.5 0 0  41 0 0  40.5 0 0  40 0 0  39.5 0 0  39 0 0  38.5 0 0  38 0 0  37.5 0 0  37 0 0  36.5 0 0  36 0 0  35.5 0 0  35 0 0  34.5 0 0  34 0 0  33.5 0 0  33 0 0  32.5 0 0  32 0 0  31.5 0 0  31 0 0  30.5 0 0  30 0 0  29.5 0 0  29 0 0  28.5 0 0  28 0 0  27.5 0 0  27 0 0  26.5 0 0  26 0 0  25.5 0 0  25 0 0  24.5 0 0  24 0 0  23.5 0 0  23 0 0  22.5 0 0  22 0 0  21.5 0 0  21 0 0  20.5 0 0  20 0 0  19.5 0 0  19 0 0  18.5 0 0  18 0 0  17.5 0 0  17 0 0  16.5 0 0  16 0 0  15.5 0 0  15 0 0  14.5 0 0  14 0 0  13.5 0 0  13 0 0  12.5 0 0  12 0 0  11.5 0 0  11 0 0  10.5 0 0  10 0 0  9.5 0 0  9 0 0  8.5 0 0  8 0 0  7.5 0 0  7 0 0  6.5 0 0  6 0 0  5.5 0 0  5 0 0  4.5 0 0  4 0 0  3.5 0 0  3 0 0  2.5 0 0  2 0 0  1.5 0 0  1 0 0  0.5 0 0  50 0 1  50 0 2  50 0 3  0 2.33524275 0.893602192  0 2.87561393 1.93323028  0 4.2367816 0.876864135  0 2.00050235 2.65534091  0 0.981494486 2.34323239  0 3.78543234 1.61830366  0 3.30545568 0.887000024  0 0.812916458 1.58408713  0 1.71948838 1.71268857  0 1.28267908 0.8650629520000001  0 1.21973121 3.10775328  0.5 5.21972132 0.958802223  0.5 4.62159061 1.82634306  0.5 3.88091111 2.5758636  0.5 3.02052855 3.18424606  0.5 2.0669806 3.632725  0.5 1.04967844 3.90746784  1 5.21972132 0.958802223  1 4.62159061 1.82634306  1 3.88091111 2.5758636  1 3.02052855 3.18424606  1 2.0669806 3.632725  1 1.04967844 3.90746784  1.5 5.21972132 0.958802223  1.5 4.62159061 1.82634306  1.5 3.88091111 2.5758636  1.5 3.02052855 3.18424606  1.5 2.0669806 3.632725  1.5 1.04967844 3.90746784  2 5.21972132 0.958802223  2 4.62159061 1.82634306  2 3.88091111 2.5758636  2 3.02052855 3.18424606  2 2.0669806 3.632725  2 1.04967844 3.90746784  2.5 5.21972132 0.958802223  2.5 4.62159061 1.82634306  2.5 3.88091111 2.5758636  2.5 3.02052855 3.18424606  2.5 2.0669806 3.632725  2.5 1.04967844 3.90746784  3 5.21972132 0.958802223  3 4.62159061 1.82634306  3 3.88091111 2.5758636  3 3.02052855 3.18424606  3 2.0669806 3.632725  3 1.04967844 3.90746784  3.5 5.21972132 0.958802223  3.5 4.62159061 1.82634306  3.5 3.88091111 2.5758636  3.5 3.02052855 3.18424606  3.5 2.0669806 3.632725  3.5 1.04967844 3.90746784  4 5.21972132 0.958802223  4 4.62159061 1.82634306  4 3.88091111 2.5758636  4 3.02052855 3.18424606  4 2.0669806 3.632725  4 1.04967844 3.90746784  4.5 5.21972132 0.958802223  4.5 4.62159061 1.82634306  4.5 3.88091111 2.5758636  4.5 3.02052855 3.18424606  4.5 2.0669806 3.632725  4.5 1.04967844 3.90746784  5 5.21972132 0.958802223  5 4.62159061 1.82634306  5 3.88091111 2.5758636  5 3.02052855 3.18424606  5 2.0669806 3.632725  5 1.04967844 3.90746784  5.5 5.21972132 0.958802223  5.5 4.62159061 1.82634306  5.5 3.88091111 2.5758636  5.5 3.02052855 3.18424606  5.5 2.0669806 3.632725  5.5 1.04967844 3.90746784  6 5.21972132 0.958802223  6 4.62159061 1.82634306  6 3.88091111 2.5758636  6 3.02052855 3.18424606  6 2.0669806 3.632725  6 1.04967844 3.90746784  6.5 5.21972132 0.958802223  6.5 4.62159061 1.82634306  6.5 3.88091111 2.5758636  6.5 3.02052855 3.18424606  6.5 2.0669806 3.632725  6.5 1.04967844 3.90746784  7 5.21972132 0.958802223  7 4.62159061 1.82634306  7 3.88091111 2.5758636  7 3.02052855 3.18424606  7 2.0669806 3.632725  7 1.04967844 3.90746784  7.5 5.21972132 0.958802223  7.5 4.62159061 1.82634306  7.5 3.88091111 2.5758636  7.5 3.02052855 3.18424606  7.5 2.0669806 3.632725  7.5 1.04967844 3.90746784  8 5.21972132 0.958802223  8 4.62159061 1.82634306  8 3.88091111 2.5758636  8 3.02052855 3.18424606  8 2.0669806 3.632725  8 1.04967844 3.90746784  8.5 5.21972132 0.958802223  8.5 4.62159061 1.82634306  8.5 3.88091111 2.5758636  8.5 3.02052855 3.18424606  8.5 2.0669806 3.632725  8.5 1.04967844 3.90746784  9 5.21972132 0.958802223  9 4.62159061 1.82634306  9 3.88091111 2.5758636  9 3.02052855 3.18424606  9 2.0669806 3.632725  9 1.04967844 3.90746784  9.5 5.21972132 0.958802223  9.5 4.62159061 1.82634306  9.5 3.88091111 2.5758636  9.5 3.02052855 3.18424606  9.5 2.0669806 3.632725  9.5 1.04967844 3.90746784  10 5.21972132 0.958802223  10 4.62159061 1.82634306  10 3.88091111 2.5758636  10 3.02052855 3.18424606  10 2.0669806 3.632725  10 1.04967844 3.90746784  10.5 5.21972132 0.958802223  10.5 4.62159061 1.82634306  10.5 3.88091111 2.5758636  10.5 3.02052855 3.18424606  10.5 2.0669806 3.632725  10.5 1.04967844 3.90746784  11 5.21972132 0.958802223  11 4.62159061 1.82634306  11 3.88091111 2.5758636  11 3.02052855 3.18424606  11 2.0669806 3.632725  11 1.04967844 3.90746784  11.5 5.21972132 0.958802223  11.5 4.62159061 1.82634306  11.5 3.88091111 2.5758636  11.5 3.02052855 3.18424606  11.5 2.0669806 3.632725  11.5 1.04967844 3.90746784  12 5.21972132 0.958802223  12 4.62159061 1.82634306  12 3.88091111 2.5758636  12 3.02052855 3.18424606  12 2.0669806 3.632725  12 1.04967844 3.90746784  12.5 5.21972132 0.958802223  12.5 4.62159061 1.82634306  12.5 3.88091111 2.5758636  12.5 3.02052855 3.18424606  12.5 2.0669806 3.632725  12.5 1.04967844 3.90746784  13 5.21972132 0.958802223  13 4.62159061 1.82634306  13 3.88091111 2.5758636  13 3.02052855 3.18424606  13 2.0669806 3.632725  13 1.04967844 3.90746784  13.5 5.21972132 0.958802223  13.5 4.62159061 1.82634306  13.5 3.88091111 2.5758636  13.5 3.02052855 3.18424606  13.5 2.0669806 3.632725  13.5 1.04967844 3.90746784  14 5.21972132 0.958802223  14 4.62159061 1.82634306  14 3.88091111 2.5758636  14 3.02052855 3.18424606  14 2.0669806 3.632725  14 1.04967844 3.90746784  14.5 5.21972132 0.958802223  14.5 4.62159061 1.82634306  14.5 3.88091111 2.5758636  14.5 3.02052855 3.18424606  14.5 2.0669806 3.632725  14.5 1.04967844 3.90746784  15 5.21972132 0.958802223  15 4.62159061 1.82634306  15 3.88091111 2.5758636  15 3.02052855 3.18424606  15 2.0669806 3.632725  15 1.04967844 3.90746784  15.5 5.21972132 0.958802223  15.5 4.62159061 1.82634306  15.5 3.88091111 2.5758636  15.5 3.02052855 3.18424606  15.5 2.0669806 3.632725  15.5 1.04967844 3.90746784  16 5.21972132 0.958802223  16 4.62159061 1.82634306  16 3.88091111 2.5758636  16 3.02052855 3.18424606  16 2.0669806 3.632725  16 1.04967844 3.90746784  16.5 5.21972132 0.958802223  16.5 4.62159061 1.82634306  16.5 3.88091111 2.5758636  16.5 3.02052855 3.18424606  16.5 2.0669806 3.632725  16.5 1.04967844 3.90746784  17 5.21972132 0.958802223  17 4.62159061 1.82634306  17 3.88091111 2.5758636  17 3.02052855 3.18424606  17 2.0669806 3.632725  17 1.04967844 3.90746784  17.5 5.21972132 0.958802223  17.5 4.62159061 1.82634306  17.5 3.88091111 2.5758636  17.5 3.02052855 3.18424606  17.
[...]
<PointData  Vectors="f_261141-0"> 
<DataArray  type="Float64"  Name="f_261141-0"  NumberOfComponents="3" format="ascii">0.0000000000000000e+00 0.0000000000000000e+00 0.0000000000000000e+00  0.0000000000000000e+00 0.0000000000000000e+00 7.2480987424839016e-01  0.0000000000000000e+00 1.0476492852058215e+00 0.0000000000000000e+00  9.2631775808637880e+00 0.0000000000000000e+00 1.9161716277572300e+00  9.6324535903954889e+00 9.7765180484639236e-01 1.3568052618666584e+00  9.5149454086237988e+00 0.0000000000000000e+00 1.3299840997105346e+00  0.0000000000000000e+00 0.0000000000000000e+00 1.5817533981205029e-01  0.0000000000000000e+00 0.0000000000000000e+00 3.6643019567602192e-01  0.0000000000000000e+00 0.0000000000000000e+00 5.7318513028462725e-01  0.0000000000000000e+00 1.9291176991017411e-01 6.9685801957680060e-01  0.0000000000000000e+00 3.6523591136587541e-01 6.5231090426424199e-01  0.0000000000000000e+00 5.4753593372004772e-01 6.0515923392352722e-01  0.0000000000000000e+00 7.2939035154375098e-01 5.0329536538877995e-01  0.0000000000000000e+00 8.9427363253053682e-01 3.3142271683911312e-01  0.0000000000000000e+00 1.0110826432850379e+00 1.7511940525017330e-01  0.0000000000000000e+00 8.9452074577750407e-01 0.0000000000000000e+00  0.0000000000000000e+00 7.2467820313587406e-01 0.0000000000000000e+00  0.0000000000000000e+00 5.2395780080968202e-01 0.0000000000000000e+00  0.0000000000000000e+00 3.3336292075266516e-01 0.0000000000000000e+00  0.0000000000000000e+00 1.6713698459083220e-01 0.0000000000000000e+00  9.4363522078214565e-02 0.0000000000000000e+00 7.2882772590241274e-01  1.8576858626240425e-01 0.0000000000000000e+00 7.2579639714657596e-01  2.7906229893490736e-01 0.0000000000000000e+00 7.2858743009440530e-01  3.7445115392349476e-01 0.0000000000000000e+00 7.3102066972573332e-01  4.6503328533654026e-01 0.0000000000000000e+00 7.3653691485357287e-01  5.6507465504820398e-01 0.0000000000000000e+00 7.3268556471344937e-01  6.5627581638472299e-01 0.0000000000000000e+00 7.3681924452696868e-01  7.5260124021154429e-01 0.0000000000000000e+00 7.3055529123666940e-01  8.4742101848931928e-01 0.0000000000000000e+00 7.3370951213660873e-01  9.3881477567297655e-01 0.0000000000000000e+00 7.3835403418790235e-01  1.0306581943139885e+00 0.0000000000000000e+00 7.4420008427587669e-01  1.1239527223082484e+00 0.0000000000000000e+00 7.5049099987298651e-01  1.2179352037857105e+00 0.0000000000000000e+00 7.6008879650068295e-01  1.3239093714785228e+00 0.0000000000000000e+00 7.5163480770685565e-01  1.4182343844527687e+00 0.0000000000000000e+00 7.5661640202313052e-01  1.5159773610565415e+00 0.0000000000000000e+00 7.5439828871149850e-01  1.6100885287610227e+00 0.0000000000000000e+00 7.5597298037576122e-01  1.7036679478263741e+00 0.0000000000000000e+00 7.5824864528730318e-01  1.7970602254924437e+00 0.0000000000000000e+00 7.6399340820740513e-01  1.8880593868100146e+00 0.0000000000000000e+00 7.7453144406142505e-01  1.9792293683731548e+00 0.0000000000000000e+00 7.8861637849576993e-01  2.0773682253302557e+00 0.0000000000000000e+00 7.8822229115457065e-01  2.1732889363887002e+00 0.0000000000000000e+00 7.9451213672423016e-01  2.2690025516304564e+00 0.0000000000000000e+00 7.9345258076657321e-01  2.3609184961749889e+00 0.0000000000000000e+00 8.0686345739846510e-01  2.4557129394661725e+00 0.0000000000000000e+00 8.1017657720289360e-01  2.5514203742875208e+00 0.0000000000000000e+00 8.1410843590963644e-01  2.6432160827104201e+00 0.0000000000000000e+00 8.2841529951055759e-01  2.7366398944749051e+00 0.0000000000000000e+00 8.3252263902564183e-01  2.8312371217252128e+00 0.0000000000000000e+00 8.3433552308324199e-01  2.9199982216367433e+00 0.0000000000000000e+00 8.5320873054131396e-01  3.0164116735539079e+00 0.0000000000000000e+00 8.5696724176902905e-01  3.1086630338731571e+00 0.0000000000000000e+00 8.6553683574447127e-01  3.2061420931083715e+00 0.0000000000000000e+00 8.6251538193717059e-01  3.3024277331219758e+00 0.0000000000000000e+00 8.6662116896589758e-01  3.3984155020233957e+00 0.0000000000000000e+00 8.7630603919408934e-01  3.4916247838146819e+00 0.0000000000000000e+00 8.8730112550678808e-01  3.5826513705501424e+00 0.0000000000000000e+00 9.0306854946181547e-01  3.6797996703623506e+00 0.0000000000000000e+00 9.0693541222783003e-01  3.7711456848435394e+00 0.0000000000000000e+00 9.2464191708362475e-01  3.8638492511167075e+00 0.0000000000000000e+00 9.4118931915675696e-01  3.9600664624502859e+00 0.0000000000000000e+00 9.4752364274443890e-01  4.0488997269295055e+00 0.0000000000000000e+00 9.5925656380954405e-01  4.1483777912995885e+00 0.0000000000000000e+00 9.5363717691548500e-01  4.2402020770455993e+00 0.0000000000000000e+00 9.6607458377979771e-01  4.3333243976664741e+00 0.0000000000000000e+00 9.8160061591776415e-01  4.4254112122653826e+00 0.0000000000000000e+00 1.0037520270143487e+00  4.5190201547121065e+00 0.0000000000000000e+00 1.0209662795938876e+00  4.6138202621618394e+00 0.0000000000000000e+00 1.0352090872193864e+00  4.7094228601064021e+00 0.0000000000000000e+00 1.0458565074310353e+00  4.8062911089252340e+00 0.0000000000000000e+00 1.0566234789644608e+00  4.8952872307367779e+00 0.0000000000000000e+00 1.0825294226541731e+00  4.9926576366202404e+00 0.0000000000000000e+00 1.0899206196691760e+00  5.0818617317079973e+00 0.0000000000000000e+00 1.1178250508299858e+00  5.1782850625794756e+00 0.0000000000000000e+00 1.1239630268700906e+00  5.2772244332312805e+00 0.0000000000000000e+00 1.1330739615795298e+00  5.3721534891475144e+00 0.0000000000000000e+00 1.1465221928559475e+00  5.4653606838524889e+00 0.0000000000000000e+00 1.1687801792343064e+00  5.5575603979597590e+00 0.0000000000000000e+00 1.1929255747911616e+00  5.6520175974279558e+00 0.0000000000000000e+00 1.2035955436378156e+00  5.7471403116633146e+00 0.0000000000000000e+00 1.2048205005742401e+00  5.8382334179052693e+00 0.0000000000000000e+00 1.2324053805084780e+00  5.9332515910021364e+00 0.0000000000000000e+00 1.2410259542464184e+00  6.0303178851826811e+00 0.0000000000000000e+00 1.2534954900411104e+00  6.1197747046805500e+00 0.0000000000000000e+00 1.2849484568185181e+00  6.2157227378139996e+00 0.0000000000000000e+00 1.3070026745317183e+00  6.3157673388419111e+00 0.0000000000000000e+00 1.3257918260239996e+00  6.4057599626792729e+00 0.0000000000000000e+00 1.3456071833494339e+00  6.4972627184602656e+00 0.0000000000000000e+00 1.3659752201299360e+00  6.5903672959234267e+00 0.0000000000000000e+00 1.3814105653341060e+00  6.6819544590565867e+00 0.0000000000000000e+00 1.4034668454171357e+00  6.7744982184582723e+00 0.0000000000000000e+00 1.4286548855938155e+00  6.8707719012863873e+00 0.0000000000000000e+00 1.4379110884313175e+00  6.9643331672217021e+00 0.0000000000000000e+00 1.4602567095689212e+00  7.0648572567522478e+00 0.0000000000000000e+00 1.4749989284271354e+00  7.1563092228480629e+00 0.0000000000000000e+00 1.5028120971439085e+00  7.2518825319164018e+00 0.0000000000000000e+00 1.5255907442138581e+00  7.3426348756570059e+00 0.0000000000000000e+00 1.5470184614555818e+00  7.4398154288078731e+00 0.0000000000000000e+00 1.5616682659655787e+00  7.5310872840574925e+00 0.0000000000000000e+00 1.5847472096158346e+00  7.6260021790802339e+00 0.0000000000000000e+00 1.6105753494291504e+00  7.7251197762045596e+00 0.0000000000000000e+00 1.6244082929294075e+00  7.8235005254652137e+00 0.0000000000000000e+00 1.6456528758810518e+00  7.9148795995735703e+00 0.0000000000000000e+00 1.6762858643523444e+00  8.0122307131430102e+00 0.0000000000000000e+00 1.6892414202785100e+00  8.1029140187266169e+00 0.0000000000000000e+00 1.7167404615570425e+00  8.1991660227076668e+00 0.0000000000000000e+00 1.7381557786187658e+00  8.2939489261477615e+00 0.0000000000000000e+00 1.7522457088936787e+00  8.3920984309420295e+00 0.0000000000000000e+00 1.7595128764863046e+00  8.4833939998226722e+00 0.0000000000000000e+00 1.7800873969793609e+00  8.5785492058315445e+00 0.0000000000000000e+00 1.7862722110108373e+00  8.6700335843776433e+00 0.0000000000000000e+00 1.7984173312606633e+00  8.7593573054961329e+00 0.0000000000000000e+00 1.8088058324914096e+00  8.8443870725338911e+00 0.0000000000000000e+00 1.8194972567524950e+00  8.9244801069978053e+00 0.0000000000000000e+00 1.8269308270700868e+00  9.0004890469817127e+00 0.0000000000000000e+00 1.8358571013029059e+00  9.0732681182652311e+00 0.0000000000000000e+00 1.8522679624189580e+00  9.1429994594530548e+00 0.0000000000000000e+00 1.8634343263301694e+00  9.2055052992497952e+00 0.0000000000000000e+00 1.8815302510912686e+00  9.2769633457059033e+00 1.2399093980629450e-01 1.9036348832730761e+00  9.3212872611600570e+00 2.6062535465236059e-01 1.8876225212752695e+00  9.3707174535173223e+00 4.0761026933094746e-01 1.8585286949210780e+00  9.4303128287163194e+00 5.7171303072423363e-01 1.8150914061330925e+00  9.5396922322217570e+00 7.5902400487306199e-01 1.7030404575088778e+00  9.5916337497568041e+00 8.9024264572914891e-01 1.5255235269752041e+00  9.5471716613810020e+00 9.8811528290947603e-01 1.3316647968358648e+00  9.4566321820451833e+00 1.0010986607277388e+00 1.3035393159536237e+00  9.3650907916344828e+00 1.0116596066727113e+00 1.2772187865799620e+00  9.2678978381374950e+00 1.0162455487192621e+00 1.2573476660904739e+00  9.1761266171018647e+00 1.0228213879283228e+00 1.2292511802457953e+00  9.0827840463521543e+00 1.0367907405821515e+00 1.1924457707626983e+00  8.9872441102836707e+00 1.0354415934031194e+00 1.1587419306007924e+00  8.8863245624341243e+00 1.0394919106558775e+00 1.1329378770490108e+00  8.7875386120782064e+00 1.0472105179164235e+00 1.1062608249810195e+00  8.6851411885283127e+00 1.0502178948848706e+00 1.0829614211794527e+00  8.5847137884946854e+00 1.0515824427858647e+00 1.0558031098372458e+00  8.4853672403615299e+00 1.0604624554484567e+00 1.0270916899184179e+00  8.3871892584858827e+00 1.0618216567316310e+00 1.0090175305567122e+00  8.2885557660055831e+00 1.0594316435376239e+00 9.8562253288496526e-01  8.1925373734871698e+00 1.0597501582601947e+00 9.4851566588700809e-01  8.0898585183466540e+00 1.0510101070473135e+00 9.2508099333816585e-01  7.9982994175501227e+00 1.0542193818932006e+00 9.1558188684371522e-01  7.9030598938573728e+00 1.0663709055595334e+00 9.0235381203235765e-01  7.8107714114313929e+00 1.0730876258186133e+00 8.8240116883061381e-01  7.7159051003383352e+00 1.0766818354685115e+00 8.6609493126883175e-01  7.6189738078171709e+00 1.0813631512500579e+00 8.5157465127754284e-01  7.5198897123954502e+00 1.0760036665539832e+00 8.4064165499522714e-01  7.4216281860345994e+00 1.0824802218744078e+00 8.1687013074267956e-01  7.3243071877202546e+00 1.0673544962452155e+00 7.9616460309884973e-01  7.2303079131072385e+00 1.0677314472205861e+00 7.6613585065694123e-01  7.1349176407683075e+00 1.0637802885669259e+00 7.4188599930839938e-01  7.0370562326985553e+00 1.0633284055097723e+00 7.1789899011411074e-01  6.9405211955650312e+00 1.0633763738933197e+00 6.9041700158842090e-01  6.8455407926727645e+00 1.0635338769575717e+00 6.6699239157468360e-01  6.7504460604106011e+00 1.0602944661693399e+00 6.4788686739414159e-01  6.6527812695112347e+00 1.0584606378964845e+00 6.2689451807708130e-01  6.5563588274973172e+00 1.0609306343963880e+00 6.0379209589348481e-01  6.4596573911650790e+00 1.0542706554293142e+00 5.8117709829183783e-01  6.3626746858753798e+00 1.0494178599690658e+00 5.5610907519460839e-01  6.2669694935895963e+00 1.0484662399429370e+00 5.3617406571466752e-01  6.1714346061220864e+00 1.0470413575815090e+00 5.1464217729414985e-01  6.0743750331750803e+00 1.0513118061061606e+00 4.9302611873676888e-01  5.9753217234709792e+00 1.0526435749344019e+00 4.7583524180051007e-01  5.8776642829337131e+00 1.0551301298850810e+00 4.5300849536671134e-01  5.7820615719726831e+00 1.0454793788804635e+00 4.3093205366323400e-01  5.6842882888088111e+00 1.0411016525439971e+00 4.0974315513094328e-01  5.5882958373809375e+00 1.0433932362364262e+00 3.9069638641278476e-01  5.4935164351920154e+00 1.0334493001421281e+00 3.8130230429785178e-01  5.3981187347640436e+00 1.0347540962676547e+00 3.6824300938642973e-01  5.3052076626355849e+00 1.0433911595289918e+00 3.5117004564580251e-01  5.2111789077137862e+00 1.0438162409201053e+00 3.4243147782772487e-01  5.1180661907257736e+00 1.0504479604460939e+00 3.2998283860942856e-01  5.0219884638161112e+00 1.0528326545756648e+00 3.1686525176170788e-01  4.9236139802978460e+00 1.0470055464292272e+00 3.0955805932397151e-01  4.8234714646169117e+00 1.0537596749081681e+00 2.9989070569141402e-01  4.7255081826036403e+00 1.0522630755403497e+00 2.8564172504513685e-01  4.6277242058998365e+00 1.0609459425149785e+00 2.6218335637379775e-01  4.5311084832475021e+00 1.0544241833809516e+00 2.5198860971992093e-01  4.4304868803231550e+00 1.0564700009259833e+00 2.2711631900706680e-01  4.3367695165643836e+00 1.0549716029099900e+00 2.1125711646645315e-01  4.2377676257522614e+00 1.0532295616219707e+00 2.0687878238591537e-01  4.1392221858157150e+00 1.0511625150268586e+00 2.0702298118248280e-01  4.0435935279493203e+00 1.0599565093432959e+00 1.9442637105909724e-01  3.9479456636759269e+00 1.0611172468847665e+00 1.8460002715710153e-01  3.8543067451455282e+00 1.0610789072209343e+00 1.7249218406554617e-01  3.7555192895047260e+00 1.0667922289188361e+00 1.5850847589049977e-01  3.6588110583673443e+00 1.0567803533743962e+00 1.4782823276523363e-01  3.5586822192923213e+00 1.0564712682965343e+00 1.4026097077023442e-01  3.4644932171543248e+00 1.0609700867515979e+00 1.2274317794235388e-01  3.3670317791491540e+00 1.0550112143770038e+00 1.1993528714750769e-01  3.2689488048490367e+00 1.0410251741499892e+00 1.2115830851453736e-01  3.1744198728748616e+00 1.0483981761613532e+00 1.0230360341416490e-01  3.0786155416084506e+00 1.0475262568023949e+00 8.8451259190450618e-02  2.9849743382053755e+00 1.0431326449417950e+00 8.0470521855325050e-02  2.8904784595622899e+00 1.0461269542116107e+00 7.2814672528593388e-02  2.7929560942186265e+00 1.0470765175595627e+00 7.1242658121949590e-02  2.6952035786742679e+00 1.0510305079005331e+00 6.5634941909228278e-02  2.5992680778815487e+00 1.0557642049766762e+00 5.6433700015826128e-02  2.5015052573647552e+00 1.0517870930538651e+00 5.4151035059610282e-02  2.4041364502552756e+00 1.0532728319842672e+00 4.8610564749986138e-02  2.3073599698257725e+00 1.0482861729265742e+00 4.6724195822611253e-02  2.2110962174598972e+00 1.0541702923407874e+00 4.0341637105393680e-02  2.1187235446859640e+00 1.0596217148875813e+00 3.4446043886422924e-02  2.0200648944856323e+00 1.0627600763957952e+00 3.1055850444544959e-02  1.9211772672548144e+00 1.0536477834457987e+00 3.7678522533947947e-02  1.8265370063256339e+00 1.0639395051948417e+00 3.0371101886140273e-02  1.7285993583168975e+00 1.0639329725502762e+00 2.9466446211860241e-02  1.6331877584310075e+00 1.0512689889529472e+00 3.2123814744699226e-02  1.5371305570534683e+00 1.0564585024707844e+00 2.2958593749829930e-02  1.4439152202843712e+00 1.0568679608338649e+00 1.5385133355713483e-02  1.3493607650244555e+00 1.0579835917369527e+00 1.4864696319240643e-02  1.2523432751539638e+00 1.0535255511754145e+00 2.2416986298866362e-02  1.1549811098712826e+00 1.0648099130033071e+00 1.5800711551749367e-02  1.0575690465464951e+00 1.0646828895722718e+00 1.1539477961162958e-02  9.5981376774005267e-01 1.0680634686761936e+00 1.0385758710827678e-02  8.6289887882658645e-01 1.0636076101598648e+00 3.6175574594875981e-03  7.6776643283971668e-01 1.0634999184603895e+00 2.5289619056920783e-03  6.7068806471190889e-01 1.0681933200360800e+00 2.8415036339899757e-04  5.7133403361311130e-01 1.0657646219590895e+00 8.9704338102951486e-03  4.7679897752527439e-01 1.0622698671986224e+00 1.2074145494718178e-02  3.8119402705484340e-01 1.0676620421459981e+00 5.8529030464216170e-03  2.8365525163785210e-01 1.0565652004245172e+00 4.5114856538861535e-03  1.8942587859866289e-01 1.0525912382388154e+00 0.0000000000000000e+00  9.3575646612651456e-02 1.0450358743824650e+00 0.0000000000000000e+00  9.6111914840217665e+00 8.0150084758137663e-01 1.3524635098070232e+00  9.5889547920792477e+00 6.3170059699911563e-01 1.3428736310994700e+00  9.5671129365611289e+00 4.6924504942545336e-01 1.3305649708704150e+00  9.5544482931708465e+00 3.0813980636915156e-01 1.3414206797330404e+00  9.5286836473973526e+00 1.4172496543323373e-01 1.3252398325019625e+00  9.4323035807653124e+00 0.0000000000000000e+00 1.2897696833243084e+00  9.3531897419610726e+00 0.0000000000000000e+00 1.2604383753089803e+00  9.2696130753812884e+00 0.0000000000000000e+00 1.2260311167532125e+00  9.1836904702480258e+00 0.0000000000000000e+00 1.1954634470824876e+00  9.0928621064502053e+00 0.0000000000000000e+00 1.1787750620733770e+00  9.0009620770482091e+00 0.0000000000000000e+00 1.1534131221841377e+00  8.9097170647250596e+00 0.0000000000000000e+00 1.1296796479473574e+00  8.8141748917634573e+00 0.0000000000000000e+00 1.1111018343665322e+00  8.7219431030785479e+00 0.0000000000000000e+00 1.0897159825432923e+00  8.6290301051707239e+00 0.0000000000000000e+00 1.0651285064799263e+00  8.5356208699482909e+00 0.0000000000000000e+00 1.0497718302906547e+00  8.4450419625274424e+00 0.0000000000000000e+00 1.0275115596581763e+00  8.3531442844453050e+00 0.0000000000000000e+00 1.0143152211203932e+00  8.2555626643913982e+00 0.0000000000000000e+00 1.0009991838415406e+00  8.1675149056611609e+00 0.0000000000000000e+00 9.7389804273552361e-01  8.0772248947937832e+00 0.0000000000000000e+00 9.4721459886782022e-01  7.9838042237357367e+00 0.0000000000000000e+00 9.2966117336515530e-01  7.8913128825031364e+00 0.0000000000000000e+00 9.0709215484025973e-01  7.7981898479008267e+00 0.0000000000000000e+00 8.7568261205570663e-01  7.7046757624513456e+00 0.0000000000000000e+00 8.5527742913561677e-01  7.6090184401731067e+00 0.0000000000000000e+00 8.3470615217823874e-01  7.5113120606360120e+00 0.0000000000000000e+00 8.2609530560533018e-01  7.4163116075644249e+00 0.0000000000000000e+00 8.0654686306818801e-01  7.3207732315127485e+00 0.0000000000000000e+00 7.8352866917310049e-01  7.2257238262161234e+00 0.0000000000000000e+00 7.6633067915234965e-01  7.1287350496753490e+00 0.0000000000000000e+00 7.5205799966461306e-01  7.0319522422799414e+00 0.0000000000000000e+00 7.2644079565759923e-01  6.9346055148510732e+00 0.0000000000000000e+00 7.0460683156869719e-01  6.8389651521279387e+00 0.0000000000000000e+00 6.7798106840219596e-01  6.7407375090861112e+00 0.0000000000000000e+00 6.6150689995594614e-01  6.6491075568831812e+00 0.0000000000000000e+00 6.3786859320157419e-01  6.5563944968318042e+00 0.0000000000000000e+00 6.1859873706952651e-01  6.4622787842256368e+00 0.0000000000000000e+00 6.0202704253765726e-01  6.3647354466281714e+00 0.0000000000000000e+00 5.8051876730931884e-01  6.2651519349635052e+00 0.0000000000000000e+00 5.5926535189707571e-01  6.1686673446765230e+00 0.0000000000000000e+00 5.3954953954440221e-01  6.0713473996776104e+00 0.0000000000000000e+00 5.2062819064199517e-01  5.9727879650049980e+00 0.0000000000000000e+00 5.0900286110490678e-01  5.8750495682172499e+00 0.0000000000000000e+00 4.9803124516240294e-01  5.7815298246733899e+00 0.0000000000000000e+00 4.8632818409930945e-01  5.6870706245483014e+00 0.0000000000000000e+00 4.6859394276460914e-01  5.5935359664465638e+00 0.0000000000000000e+00 4.5439104906489736e-01  5.4952276165385445e+00 0.0000000000000000e+00 4.3818082997024832e-01  5.4039945371137819e+00 0.0000000000000000e+00 4.1355048834166208e-01  5.3090133852124044e+00 0.0000000000000000e+00 3.9405620870715602e-01  5.2104949025919414e+00 0.0000000000000000e+00 3.8618195923411341e-01  5.1124471056625955e+00 0.0000000000000000e+00 3.7009056257483486e-01  5.0188303986660667e+00 0.0000000000000000e+00 3.5387036971412045e-01  4.9159270446446452e+00 0.0000000000000000e+00 3.4103742978399360e-01  4.8209335388598431e+00 0.0000000000000000e+00 3.2272094801562373e-01  4.7258282872143944e+00 0.0000000000000000e+00 2.9736635288816277e-01  4.6295128126116287e+00 0.0000000000000000e+00 2.8699819339068933e-01  4.5339737357677956e+00 0.0000000000000000e+00 2.6925380141675226e-01  4.4355697132448606e+00 0.0000000000000000e+00 2.6401541577719101e-01  4.3332723356815404e+00 0.0000000000000000e+00 2.5212862094910304e-01  