<?xml version="1.0"?>
<VTKFile type="UnstructuredGrid"  version="0.1"  >
<UnstructuredGrid>
<Piece  NumberOfPoints="3069" NumberOfCells="12882">
<Points>
<DataArray  type="Float64"  NumberOfComponents="3"  format="ascii">0 0 0  0 0 4  0 5.65685415 0  50 0 4  50 5.65685415 0  50 0 0  0 0 1  0 0 2  0 0 3  0 1.04967844 3.90746784  0 2.0669806 3.632725  0 3.02052855 3.18424606  0 3.88091111 2.5758636  0 4.62159061 1.82634306  0 5.21972132 0.958802283  0 4.71404505 0  0 3.77123618 0  0 2.82842708 0  0 1.88561809 0  0 0.942809045 0  0.5 0 4  1 0 4  1.5 0 4  2 0 4  2.5 0 4  3 0 4  3.5 0 4  4 0 4  4.5 0 4  5 0 4  5.5 0 4  6 0 4  6.5 0 4  7 0 4  7.5 0 4  8 0 4  8.5 0 4  9 0 4  9.5 0 4  10 0 4  10.5 0 4  11 0 4  11.5 0 4  12 0 4  12.5 0 4  13 0 4  13.5 0 4  14 0 4  14.5 0 4  15 0 4  15.5 0 4  16 0 4  16.5 0 4  17 0 4  17.5 0 4  18 0 4  18.5 0 4  19 0 4  19.5 0 4  20 0 4  20.5 0 4  21 0 4  21.5 0 4  22 0 4  22.5 0 4  23 0 4  23.5 0 4  24 0 4  24.5 0 4  25 0 4  25.5 0 4  26 0 4  26.5 0 4  27 0 4  27.5 0 4  28 0 4  28.5 0 4  29 0 4  29.5 0 4  30 0 4  30.5 0 4  31 0 4  31.5 0 4  32 0 4  32.5 0 4  33 0 4  33.5 0 4  34 0 4  34.5 0 4  35 0 4  35.5 0 4  36 0 4  36.5 0 4  37 0 4  37.5 0 4  38 0 4  38.5 0 4  39 0 4  39.5 0 4  40 0 4  40.5 0 4  41 0 4  41.5 0 4  42 0 4  42.5 0 4  43 0 4  43.5 0 4  44 0 4  44.5 0 4  45 0 4  45.5 0 4  46 0 4  46.5 0 4  47 0 4  47.5 0 4  48 0 4  48.5 0 4  49 0 4  49.5 0 4  50 1.04967844 3.90746784  50 2.0669806 3.632725  50 3.02052855 3.18424606  50 3.88091111 2.5758636  50 4.62159061 1.82634306  50 5.21972132 0.958802283  49.5 5.65685415 0  49 5.65685415 0  48.5 5.65685415 0  48 5.65685415 0  47.5 5.65685415 0  47 5.65685415 0  46.5 5.65685415 0  46 5.65685415 0  45.5 5.65685415 0  45 5.65685415 0  44.5 5.65685415 0  44 5.65685415 0  43.5 5.65685415 0  43 5.65685415 0  42.5 5.65685415 0  42 5.65685415 0  41.5 5.65685415 0  41 5.65685415 0  40.5 5.65685415 0  40 5.65685415 0  39.5 5.65685415 0  39 5.65685415 0  38.5 5.65685415 0  38 5.65685415 0  37.5 5.65685415 0  37 5.65685415 0  36.5 5.65685415 0  36 5.65685415 0  35.5 5.65685415 0  35 5.65685415 0  34.5 5.65685415 0  34 5.65685415 0  33.5 5.65685415 0  33 5.65685415 0  32.5 5.65685415 0  32 5.65685415 0  31.5 5.65685415 0  31 5.65685415 0  30.5 5.65685415 0  30 5.65685415 0  29.5 5.65685415 0  29 5.65685415 0  28.5 5.65685415 0  28 5.65685415 0  27.5 5.65685415 0  27 5.65685415 0  26.5 5.65685415 0  26 5.65685415 0  25.5 5.65685415 0  25 5.65685415 0  24.5 5.65685415 0  24 5.65685415 0  23.5 5.65685415 0  23 5.65685415 0  22.5 5.65685415 0  22 5.65685415 0  21.5 5.65685415 0  21 5.65685415 0  20.5 5.65685415 0  20 5.65685415 0  19.5 5.65685415 0  19 5.65685415 0  18.5 5.65685415 0  18 5.65685415 0  17.5 5.65685415 0  17 5.65685415 0  16.5 5.65685415 0  16 5.65685415 0  15.5 5.65685415 0  15 5.65685415 0  14.5 5.65685415 0  14 5.65685415 0  13.5 5.65685415 0  13 5.65685415 0  12.5 5.65685415 0  12 5.65685415 0  11.5 5.65685415 0  11 5.65685415 0  10.5 5.65685415 0  10 5.65685415 0  9.5 5.65685415 0  9 5.65685415 0  8.5 5.65685415 0  8 5.65685415 0  7.5 5.65685415 0  7 5.65685415 0  6.5 5.65685415 0  6 5.65685415 0  5.5 5.65685415 0  5 5.65685415 0  4.5 5.65685415 0  4 5.65685415 0  3.5 5.65685415 0  3 5.65685415 0  2.5 5.65685415 0  2 5.65685415 0  1.5 5.65685415 0  1 5.65685415 0  0.5 5.65685415 0  50 4.71404505 0  50 3.77123618 0  50 2.82842708 0  50 1.88561809 0  50 0.942809045 0  49.5 0 0  49 0 0  48.5 0 0  48 0 0  47.5 0 0  47 0 0  46.5 0 0  46 0 0  45.5 0 0  45 0 0  44.5 0 0  44 0 0  43.5 0 0  43 0 0  42.5 0 0  42 0 0  41.5 0 0  41 0 0  40.5 0 0  40 0 0  39.5 0 0  39 0 0  38.5 0 0  38 0 0  37.5 0 0  37 0 0  36.5 0 0  36 0 0  35.5 0 0  35 0 0  34.5 0 0  34 0 0  33.5 0 0  33 0 0  32.5 0 0  32 0 0  31.5 0 0  31 0 0  30.5 0 0  30 0 0  29.5 0 0  29 0 0  28.5 0 0  28 0 0  27.5 0 0  27 0 0  26.5 0 0  26 0 0  25.5 0 0  25 0 0  24.5 0 0  24 0 0  23.5 0 0  23 0 0  22.5 0 0  22 0 0  21.5 0 0  21 0 0  20.5 0 0  20 0 0  19.5 0 0  19 0 0  18.5 0 0  18 0 0  17.5 0 0  17 0 0  16.5 0 0  16 0 0  15.5 0 0  15 0 0  14.5 0 0  14 0 0  13.5 0 0  13 0 0  12.5 0 0  12 0 0  11.5 0 0  11 0 0  10.5 0 0  10 0 0  9.5 0 0  9 0 0  8.5 0 0  8 0 0  7.5 0 0  7 0 0  6.5 0 0  6 0 0  5.5 0 0  5 0 0  4.5 0 0  4 0 0  3.5 0 0  3 0 0  2.5 0 0  2 0 0  1.5 0 0  1 0 0  0.5 0 0  50 0 1  50 0 2  50 0 3  0 2.33524275 0.893602192  0 2.87561393 1.93323028  0 4.2367816 0.876864135  0 2.00050235 2.65534091  0 0.981494486 2.34323239  0 3.78543234 1.61830366  0 3.30545568 0.887000024  0 0.812916458 1.58408713  0 1.71948838 1.71268857  0 1.28267908 0.8650629520000001  0 1.21973121 3.10775328  0.5 5.21972132 0.958802223  0.5 4.62159061 1.82634306  0.5 3.88091111 2.5758636  0.5 3.02052855 3.18424606  0.5 2.0669806 3.632725  0.5 1.04967844 3.90746784  1 5.21972132 0.958802223  1 4.62159061 1.82634306  1 3.88091111 2.5758636  1 3.02052855 3.18424606  1 2.0669806 3.632725  1 1.04967844 3.90746784  1.5 5.21972132 0.958802223  1.5 4.62159061 1.82634306  1.5 3.88091111 2.5758636  1.5 3.02052855 3.18424606  1.5 2.0669806 3.632725  1.5 1.04967844 3.90746784  2 5.21972132 0.958802223  2 4.62159061 1.82634306  2 3.88091111 2.5758636  2 3.02052855 3.18424606  2 2.0669806 3.632725  2 1.04967844 3.90746784  2.5 5.21972132 0.958802223  2.5 4.62159061 1.82634306  2.5 3.88091111 2.5758636  2.5 3.02052855 3.18424606  2.5 2.0669806 3.632725  2.5 1.04967844 3.90746784  3 5.21972132 0.958802223  3 4.62159061 1.82634306  3 3.88091111 2.5758636  3 3.02052855 3.18424606  3 2.0669806 3.632725  3 1.04967844 3.90746784  3.5 5.21972132 0.958802223  3.5 4.62159061 1.82634306  3.5 3.88091111 2.5758636  3.5 3.02052855 3.18424606  3.5 2.0669806 3.632725  3.5 1.04967844 3.90746784  4 5.21972132 0.958802223  4 4.62159061 1.82634306  4 3.88091111 2.5758636  4 3.02052855 3.18424606  4 2.0669806 3.632725  4 1.04967844 3.90746784  4.5 5.21972132 0.958802223  4.5 4.62159061 1.82634306  4.5 3.88091111 2.5758636  4.5 3.02052855 3.18424606  4.5 2.0669806 3.632725  4.5 1.04967844 3.90746784  5 5.21972132 0.958802223  5 4.62159061 1.82634306  5 3.88091111 2.5758636  5 3.02052855 3.18424606  5 2.0669806 3.632725  5 1.04967844 3.90746784  5.5 5.21972132 0.958802223  5.5 4.62159061 1.82634306  5.5 3.88091111 2.5758636  5.5 3.02052855 3.18424606  5.5 2.0669806 3.632725  5.5 1.04967844 3.90746784  6 5.21972132 0.958802223  6 4.62159061 1.82634306  6 3.88091111 2.5758636  6 3.02052855 3.18424606  6 2.0669806 3.632725  6 1.04967844 3.90746784  6.5 5.21972132 0.958802223  6.5 4.62159061 1.82634306  6.5 3.88091111 2.5758636  6.5 3.02052855 3.18424606  6.5 2.0669806 3.632725  6.5 1.04967844 3.90746784  7 5.21972132 0.958802223  7 4.62159061 1.82634306  7 3.88091111 2.5758636  7 3.02052855 3.18424606  7 2.0669806 3.632725  7 1.04967844 3.90746784  7.5 5.21972132 0.958802223  7.5 4.62159061 1.82634306  7.5 3.88091111 2.5758636  7.5 3.02052855 3.18424606  7.5 2.0669806 3.632725  7.5 1.04967844 3.90746784  8 5.21972132 0.958802223  8 4.62159061 1.82634306  8 3.88091111 2.5758636  8 3.02052855 3.18424606  8 2.0669806 3.632725  8 1.04967844 3.90746784  8.5 5.21972132 0.958802223  8.5 4.62159061 1.82634306  8.5 3.88091111 2.5758636  8.5 3.02052855 3.18424606  8.5 2.0669806 3.632725  8.5 1.04967844 3.90746784  9 5.21972132 0.958802223  9 4.62159061 1.82634306  9 3.88091111 2.5758636  9 3.02052855 3.18424606  9 2.0669806 3.632725  9 1.04967844 3.90746784  9.5 5.21972132 0.958802223  9.5 4.62159061 1.82634306  9.5 3.88091111 2.5758636  9.5 3.02052855 3.18424606  9.5 2.0669806 3.632725  9.5 1.04967844 3.90746784  10 5.21972132 0.958802223  10 4.62159061 1.82634306  10 3.88091111 2.5758636  10 3.02052855 3.18424606  10 2.0669806 3.632725  10 1.04967844 3.90746784  10.5 5.21972132 0.958802223  10.5 4.62159061 1.82634306  10.5 3.88091111 2.5758636  10.5 3.02052855 3.18424606  10.5 2.0669806 3.632725  10.5 1.04967844 3.90746784  11 5.21972132 0.958802223  11 4.62159061 1.82634306  11 3.88091111 2.5758636  11 3.02052855 3.18424606  11 2.0669806 3.632725  11 1.04967844 3.90746784  11.5 5.21972132 0.958802223  11.5 4.62159061 1.82634306  11.5 3.88091111 2.5758636  11.5 3.02052855 3.18424606  11.5 2.0669806 3.632725  11.5 1.04967844 3.90746784  12 5.21972132 0.958802223  12 4.62159061 1.82634306  12 3.88091111 2.5758636  12 3.02052855 3.18424606  12 2.0669806 3.632725  12 1.04967844 3.90746784  12.5 5.21972132 0.958802223  12.5 4.62159061 1.82634306  12.5 3.88091111 2.5758636  12.5 3.02052855 3.18424606  12.5 2.0669806 3.632725  12.5 1.04967844 3.90746784  13 5.21972132 0.958802223  13 4.62159061 1.82634306  13 3.88091111 2.5758636  13 3.02052855 3.18424606  13 2.0669806 3.632725  13 1.04967844 3.90746784  13.5 5.21972132 0.958802223  13.5 4.62159061 1.82634306  13.5 3.88091111 2.5758636  13.5 3.02052855 3.18424606  13.5 2.0669806 3.632725  13.5 1.04967844 3.90746784  14 5.21972132 0.958802223  14 4.62159061 1.82634306  14 3.88091111 2.5758636  14 3.02052855 3.18424606  14 2.0669806 3.632725  14 1.04967844 3.90746784  14.5 5.21972132 0.958802223  14.5 4.62159061 1.82634306  14.5 3.88091111 2.5758636  14.5 3.02052855 3.18424606  14.5 2.0669806 3.632725  14.5 1.04967844 3.90746784  15 5.21972132 0.958802223  15 4.62159061 1.82634306  15 3.88091111 2.5758636  15 3.02052855 3.18424606  15 2.0669806 3.632725  15 1.04967844 3.90746784  15.5 5.21972132 0.958802223  15.5 4.62159061 1.82634306  15.5 3.88091111 2.5758636  15.5 3.02052855 3.18424606  15.5 2.0669806 3.632725  15.5 1.04967844 3.90746784  16 5.21972132 0.958802223  16 4.62159061 1.82634306  16 3.88091111 2.5758636  16 3.02052855 3.18424606  16 2.0669806 3.632725  16 1.04967844 3.90746784  16.5 5.21972132 0.958802223  16.5 4.62159061 1.82634306  16.5 3.88091111 2.5758636  16.5 3.02052855 3.18424606  16.5 2.0669806 3.632725  16.5 1.04967844 3.90746784  17 5.21972132 0.958802223  17 4.62159061 1.82634306  17 3.88091111 2.5758636  17 3.02052855 3.18424606  17 2.0669806 3.632725  17 1.04967844 3.90746784  17.5 5.21972132 0.958802223  17.5 4.62159061 1.82634306  17.5 3.88091111 2.5758636  17.5 3.02052855 3.18424606  17.
[...]
<PointData  Vectors="f_261141-0"> 
<DataArray  type="Float64"  Name="f_261141-0"  NumberOfComponents="3" format="ascii">0.0000000000000000e+00 0.0000000000000000e+00 0.0000000000000000e+00  0.0000000000000000e+00 0.0000000000000000e+00 -6.3028568127589346e-05  0.0000000000000000e+00 1.8033792559376046e-03 0.0000000000000000e+00  -6.6363824280635741e-04 0.0000000000000000e+00 5.4078133204929921e-02  9.0009188175960257e-03 1.0929781170231072e-03 5.4690015235302515e-02  9.0781399549155969e-03 0.0000000000000000e+00 5.4493359240100153e-02  0.0000000000000000e+00 0.0000000000000000e+00 4.4643767233120400e-04  0.0000000000000000e+00 0.0000000000000000e+00 1.6173806359087229e-04  0.0000000000000000e+00 0.0000000000000000e+00 -8.1259233271670510e-05  0.0000000000000000e+00 -5.5801459111274275e-04 -3.6452169234337835e-04  0.0000000000000000e+00 -1.5656461925390658e-04 2.7463955806163968e-04  0.0000000000000000e+00 6.6854915394116214e-05 6.2493607868447678e-04  0.0000000000000000e+00 4.4837929338385546e-04 6.1901236062703567e-04  0.0000000000000000e+00 6.0967007193191559e-05 8.4548266648625631e-04  0.0000000000000000e+00 1.0929909190698107e-05 4.9513652147597457e-04  0.0000000000000000e+00 4.7504038830333391e-04 0.0000000000000000e+00  0.0000000000000000e+00 8.0144664085326383e-04 0.0000000000000000e+00  0.0000000000000000e+00 4.8792296133495685e-04 0.0000000000000000e+00  0.0000000000000000e+00 1.4973655928088902e-04 0.0000000000000000e+00  0.0000000000000000e+00 2.4587472722395882e-05 0.0000000000000000e+00  1.1824995310146685e-04 0.0000000000000000e+00 -6.4489158113161112e-05  1.3961086266533381e-04 0.0000000000000000e+00 -2.9069805708229520e-04  7.5472006705274924e-05 0.0000000000000000e+00 -3.3891837503748361e-04  4.5044667602417783e-05 0.0000000000000000e+00 -2.1541362723370342e-04  1.4535265971019084e-04 0.0000000000000000e+00 -2.9903516981057300e-04  2.3756476382950985e-05 0.0000000000000000e+00 -2.1065900449572834e-04  2.0398117419099343e-05 0.0000000000000000e+00 -2.1016314561056384e-04  -1.1392289650807052e-04 0.0000000000000000e+00 -1.2078363604762864e-04  -1.6660559304082186e-04 0.0000000000000000e+00 6.9998022363988702e-05  -1.8839595277384910e-04 0.0000000000000000e+00 6.3188030293447744e-04  -1.5976860124004518e-04 0.0000000000000000e+00 5.8758460280358411e-04  -9.0113246686699696e-05 0.0000000000000000e+00 5.2514496672583324e-04  -1.2188816652640700e-04 0.0000000000000000e+00 9.5345245557283470e-04  -2.8532732511700226e-04 0.0000000000000000e+00 1.2631448434333422e-03  -4.3481131961137383e-05 0.0000000000000000e+00 1.1834393646614715e-03  -1.5128566164644596e-04 0.0000000000000000e+00 1.5386477692532021e-03  -5.9940290222537082e-05 0.0000000000000000e+00 1.8649840180803741e-03  -5.3793595962434938e-05 0.0000000000000000e+00 2.0054416685488653e-03  -5.5327702602208761e-05 0.0000000000000000e+00 2.0361900853205330e-03  -5.3830654633574675e-05 0.0000000000000000e+00 2.3478814936129903e-03  -6.2136941929234456e-05 0.0000000000000000e+00 2.2621205552557145e-03  3.9161017682960686e-05 0.0000000000000000e+00 2.7183931443117539e-03  -8.4880158732385553e-05 0.0000000000000000e+00 2.6987349814316113e-03  -6.6278865386425800e-05 0.0000000000000000e+00 3.0832956120069484e-03  1.3513291133039623e-05 0.0000000000000000e+00 3.3721609865241487e-03  -2.9438566177876289e-05 0.0000000000000000e+00 3.7813965263432964e-03  -1.5678430259391245e-04 0.0000000000000000e+00 4.2938780907656711e-03  -1.1219793371488375e-04 0.0000000000000000e+00 4.3054808405037981e-03  -8.4999218580727158e-05 0.0000000000000000e+00 4.8861759144838658e-03  -2.0000851834411091e-04 0.0000000000000000e+00 5.2388420682033402e-03  2.2213853612693265e-05 0.0000000000000000e+00 5.0836147270529241e-03  3.6402267926534299e-05 0.0000000000000000e+00 5.4392865352728588e-03  -1.2382992321692805e-05 0.0000000000000000e+00 5.7944110847715632e-03  -1.9014790381150514e-05 0.0000000000000000e+00 6.1877747386563653e-03  8.3403515797162632e-05 0.0000000000000000e+00 6.6159912286510754e-03  1.2536676004145308e-04 0.0000000000000000e+00 6.7437170044940195e-03  7.9463457196346409e-05 0.0000000000000000e+00 7.3301294917141775e-03  1.3826369356943156e-04 0.0000000000000000e+00 7.5712927413713500e-03  7.6372397702154636e-05 0.0000000000000000e+00 8.2292668701524838e-03  1.5159801772923046e-04 0.0000000000000000e+00 8.5376699183437477e-03  3.0625961965427887e-04 0.0000000000000000e+00 8.6677052712410517e-03  1.4052490965772490e-04 0.0000000000000000e+00 9.0801105455879869e-03  2.0809650680856019e-04 0.0000000000000000e+00 9.4057582763235528e-03  -1.1517985685526803e-05 0.0000000000000000e+00 1.0143117332543026e-02  2.0698491606793452e-04 0.0000000000000000e+00 1.0188982922290344e-02  1.3665048721879600e-04 0.0000000000000000e+00 1.0727346225281736e-02  9.6784936241768723e-05 0.0000000000000000e+00 1.1061072139452699e-02  -2.4636487052402464e-05 0.0000000000000000e+00 1.1742671366740284e-02  -3.0288545240424064e-06 0.0000000000000000e+00 1.2138798209000668e-02  -3.7323888262112174e-05 0.0000000000000000e+00 1.2706414052968379e-02  -1.2275695542745949e-04 0.0000000000000000e+00 1.3369201225104302e-02  -1.0470482363501038e-04 0.0000000000000000e+00 1.3857377675157186e-02  -8.6520884568670595e-05 0.0000000000000000e+00 1.4747641701801881e-02  -8.5423110135521469e-05 0.0000000000000000e+00 1.5157078843361326e-02  2.7098167753298547e-05 0.0000000000000000e+00 1.5589623587308515e-02  -8.4852086274576601e-05 0.0000000000000000e+00 1.6061774005501159e-02  -6.7544633742184574e-05 0.0000000000000000e+00 1.6520963763596384e-02  -2.8331869093587634e-06 0.0000000000000000e+00 1.7136311572265209e-02  -1.6267483880443695e-04 0.0000000000000000e+00 1.7805775689102632e-02  -2.1756241807134781e-04 0.0000000000000000e+00 1.8317410332458005e-02  -3.1462223107601680e-04 0.0000000000000000e+00 1.8985872662227902e-02  -3.0576729711153771e-04 0.0000000000000000e+00 1.9595034707333914e-02  -2.4998137704392519e-04 0.0000000000000000e+00 2.0191810949512914e-02  -2.1275936100538295e-04 0.0000000000000000e+00 2.1020576093195294e-02  -3.3083052968641886e-04 0.0000000000000000e+00 2.1914139710251072e-02  -3.6579270215982040e-04 0.0000000000000000e+00 2.2727855429896367e-02  -3.5807707042766662e-04 0.0000000000000000e+00 2.3441433223332173e-02  -2.6853845312841052e-04 0.0000000000000000e+00 2.4034803394954590e-02  -3.1028461252760175e-04 0.0000000000000000e+00 2.4791637769518943e-02  -2.9763733342854336e-04 0.0000000000000000e+00 2.5697264587832232e-02  -3.9245582377044351e-04 0.0000000000000000e+00 2.6439845339260835e-02  -3.5466566682972251e-04 0.0000000000000000e+00 2.7242036471814193e-02  -3.1000245144591237e-04 0.0000000000000000e+00 2.8247346322408606e-02  -2.8681462318418328e-04 0.0000000000000000e+00 2.8994476807518717e-02  -3.2262854570823060e-04 0.0000000000000000e+00 2.9687877033265763e-02  -2.1914569845888455e-04 0.0000000000000000e+00 3.0495374413886722e-02  -2.5666986853266805e-04 0.0000000000000000e+00 3.1482880386529924e-02  -2.4971950532600708e-04 0.0000000000000000e+00 3.2126567653982953e-02  -3.2907107061320702e-04 0.0000000000000000e+00 3.3189179018691187e-02  -3.9853086764233333e-04 0.0000000000000000e+00 3.4111419099337209e-02  -2.8427262955189615e-04 0.0000000000000000e+00 3.5137970631490913e-02  -3.4581534788760845e-04 0.0000000000000000e+00 3.6083983513604714e-02  -3.9240211532084871e-04 0.0000000000000000e+00 3.6973397047601747e-02  -3.3630380741583887e-04 0.0000000000000000e+00 3.7930789763696605e-02  -3.3281282705770692e-04 0.0000000000000000e+00 3.8842613165852885e-02  -4.1432190761926180e-04 0.0000000000000000e+00 3.9728409623566011e-02  -3.6088304898661120e-04 0.0000000000000000e+00 4.0661392153879775e-02  -2.3927194424495869e-04 0.0000000000000000e+00 4.1702390709418752e-02  -2.8870709349218830e-04 0.0000000000000000e+00 4.2364258700256285e-02  -2.7515277273252247e-04 0.0000000000000000e+00 4.3302155938107670e-02  -4.9186991839268149e-04 0.0000000000000000e+00 4.4371560835398824e-02  -6.1825439177815706e-04 0.0000000000000000e+00 4.5602206115092511e-02  -5.8731259507540908e-04 0.0000000000000000e+00 4.6569718366849755e-02  -6.2634178301506217e-04 0.0000000000000000e+00 4.7618008471509966e-02  -6.0244387084402171e-04 0.0000000000000000e+00 4.8509339580257632e-02  -6.9284438646970039e-04 0.0000000000000000e+00 4.9572777278272667e-02  -6.6538111509266927e-04 0.0000000000000000e+00 5.0696766449342526e-02  -6.4549167658024570e-04 0.0000000000000000e+00 5.1803024029522200e-02  -6.3900554065776378e-04 0.0000000000000000e+00 5.2899788149358730e-02  -1.2058624870916299e-04 -2.4924539511820199e-05 5.3953118287766867e-02  5.6056404125560814e-04 -6.9647918586297446e-05 5.4031305970002053e-02  1.4124197322325747e-03 -1.9169893569739451e-04 5.4020223137660049e-02  3.0314034746825296e-03 -2.5291940952473806e-04 5.4250540544083903e-02  4.3160378789914751e-03 4.7556024343437520e-05 5.4255236784997676e-02  5.8220561796213108e-03 -1.6884780341975568e-04 5.4684762067084794e-02  8.7859837794512143e-03 1.0851576540810430e-03 5.3340913784447233e-02  8.6379382020849577e-03 9.8526857971812320e-04 5.1935879977057980e-02  8.5549622546332738e-03 8.2624426012642318e-04 5.0832119217149904e-02  8.5259895167906184e-03 9.7591064978340804e-04 4.9450890381967330e-02  8.5355735059291313e-03 1.3463168935440631e-03 4.8295677597600971e-02  8.3440626738478987e-03 1.4748500479186877e-03 4.7152762091062082e-02  8.1961005034923463e-03 1.4956587221312608e-03 4.6043809604670208e-02  8.1545250310337304e-03 1.6573521175738768e-03 4.5036381473344635e-02  8.0451564906942538e-03 1.8177402266804613e-03 4.4201295339910643e-02  7.9379839499293201e-03 2.0874733205891892e-03 4.3185196694393954e-02  7.7381877301927566e-03 2.0294775755796200e-03 4.2233824689361675e-02  7.5726726422924318e-03 1.8268925020745853e-03 4.1405884975200702e-02  7.4560166865702930e-03 1.7796404678378200e-03 4.0268375618230517e-02  7.3869743893919763e-03 1.7480822369332024e-03 3.9129937579665715e-02  7.0694806207322941e-03 1.3152105860768305e-03 3.8621190896102553e-02  7.3526172925056409e-03 1.5289434658127940e-03 3.7864472753100842e-02  7.1782076572405934e-03 1.8141194451778912e-03 3.6684665361741989e-02  7.0219463317426857e-03 1.6856908271680147e-03 3.5605006019210253e-02  6.8087685434988447e-03 1.4923690120215278e-03 3.4743528422343711e-02  6.6686374068389166e-03 1.4971445915000195e-03 3.3941726659144675e-02  6.5668911755193899e-03 1.6461430570867907e-03 3.3059193252091473e-02  6.6685773264404781e-03 1.5497328813086231e-03 3.2132273651633292e-02  6.6194609492517091e-03 1.6363106214284074e-03 3.1318699787932648e-02  6.5190459754180061e-03 1.7557406199513515e-03 3.0493151587354883e-02  6.3774869463173968e-03 1.7294811095267058e-03 2.9816724252874249e-02  6.3079192332736881e-03 1.8072258330726761e-03 2.8886025430109121e-02  6.2571713056632245e-03 1.6688110649158620e-03 2.7948111837868390e-02  6.1602434967058866e-03 1.5372410009119666e-03 2.7269778207039807e-02  6.0668501404366549e-03 1.5580255271289861e-03 2.6296527461343425e-02  5.9250758017916280e-03 1.3775857125629585e-03 2.5540749727324404e-02  5.8821170520950245e-03 1.5574878737411742e-03 2.4696862847402131e-02  5.8254448008407062e-03 1.5901438506552062e-03 2.3975045478080992e-02  5.7614925068675948e-03 1.6343321253382290e-03 2.3139979781573779e-02  5.7043858045880552e-03 1.5557246344642178e-03 2.2343021641318444e-02  5.5827489098749282e-03 1.8390644321118377e-03 2.1579396950774047e-02  5.4805081988845029e-03 1.7748125740368694e-03 2.0927817453998382e-02  5.2950305686512806e-03 1.7928246879891584e-03 2.0359782509223677e-02  5.2034527347362726e-03 1.6481737615907668e-03 1.9607622492284042e-02  5.1876783610869471e-03 1.5226430618032318e-03 1.8852868770232643e-02  4.9923908143907235e-03 1.4249032687381348e-03 1.8144124257796254e-02  4.9286010096159967e-03 1.4725479662676417e-03 1.7439637039433090e-02  4.8409167857946522e-03 1.4030578407395484e-03 1.6745141422849431e-02  4.8777071031428122e-03 1.5065631019789624e-03 1.5984769315930954e-02  4.7521041387496629e-03 1.4926739664164208e-03 1.5599961022476195e-02  4.6659550261744561e-03 1.5962310842820248e-03 1.5068015743074696e-02  4.5237340733358675e-03 1.5433990284146864e-03 1.4376735177369968e-02  4.3665117263378727e-03 1.6195692614558190e-03 1.3791186097733677e-02  4.2603821561367243e-03 1.5122276692799981e-03 1.3085122383859366e-02  4.1827837128094363e-03 1.5137896426189810e-03 1.2519807279837779e-02  4.0639300230608964e-03 1.4900242384268333e-03 1.2015542421188257e-02  3.9562678163365386e-03 1.4438029021802900e-03 1.1527989898128478e-02  3.9775576066248628e-03 1.3921600972733508e-03 1.1106795892665642e-02  3.8869370429403514e-03 1.4172140000914546e-03 1.0723362789725620e-02  3.8837503658315830e-03 1.2004448681175544e-03 1.0542140255161300e-02  3.6891619655281278e-03 1.8165709833995285e-03 1.0086686923334439e-02  3.6034932069151605e-03 1.7227363804850717e-03 9.6404543777662659e-03  3.5886614037452290e-03 1.5913255416700818e-03 9.0758435019832780e-03  3.4544889757245718e-03 1.5963672153227104e-03 8.7478896722546617e-03  3.2952104099077477e-03 1.7598842770116300e-03 8.2879891537936314e-03  3.1488284813254068e-03 1.6568500252668642e-03 8.0926393367791311e-03  3.0973859720840355e-03 1.6669871591277799e-03 7.6537311589931541e-03  2.9896689369281197e-03 1.5210421297876286e-03 7.3978920271445007e-03  2.9593981260398940e-03 1.6175407550287498e-03 6.7637135203974736e-03  2.7839424441820438e-03 1.4879774780872451e-03 6.5643492245438164e-03  2.7722458301185334e-03 1.4829044854905555e-03 6.0350981427733487e-03  2.7984229971016843e-03 1.4858271717618074e-03 5.6013156626603233e-03  2.6855341221165420e-03 1.5403525190701341e-03 5.3739375205267594e-03  2.5610375894632616e-03 1.5308309438193681e-03 5.1275215823076599e-03  2.4441137943176051e-03 1.5774110527577237e-03 4.8156709788918055e-03  2.3884628523355498e-03 1.6079458366088293e-03 4.6231900900234680e-03  2.3898551308337785e-03 1.6701504362869721e-03 4.2758952067882402e-03  2.3012236761004528e-03 1.5680556876004090e-03 4.0801911096134185e-03  2.1570714128796059e-03 1.6327474581753880e-03 3.8651718315454459e-03  2.1497827701385513e-03 1.5443134410313478e-03 3.6553896553197045e-03  2.1151898522081521e-03 1.6251571354147173e-03 3.3988236800217390e-03  2.1480986251646117e-03 1.5985367281168470e-03 3.0369030744072240e-03  1.9773042322309658e-03 1.6352555846543134e-03 2.8464850641552126e-03  1.7499277026083229e-03 1.7610151933676651e-03 2.5963699049708568e-03  1.6875988583622938e-03 1.6887089765459397e-03 2.4567728949426151e-03  1.6221791138225159e-03 1.9059779085540457e-03 2.0632400429168463e-03  1.5780845475143771e-03 1.8065977682106592e-03 1.9599788322724179e-03  1.5022893397661794e-03 1.7475015336567057e-03 1.6800609972223389e-03  1.4001519747976836e-03 1.8010913681106655e-03 1.4040753943204689e-03  1.2787039436184676e-03 1.7169598921455596e-03 1.3769760724851132e-03  1.0556717362341563e-03 1.9109314183906839e-03 1.4841131669221727e-03  1.0147370335057517e-03 1.9535659466256997e-03 1.2796142974344795e-03  1.0499482314998685e-03 2.0451377998268183e-03 9.7311033121655029e-04  9.5284852507166785e-04 1.8756258580312104e-03 1.0073039333293129e-03  9.4167917387136333e-04 1.9638542449572044e-03 7.6200067837070313e-04  8.8409077569568436e-04 1.9097955051137179e-03 6.4633875327350606e-04  7.2885486523928714e-04 1.8477381374139789e-03 5.0786952543830006e-04  6.8588838994383932e-04 1.9267082876346412e-03 3.6982367224262948e-04  6.1203977613424334e-04 2.0206941958232712e-03 2.6905451480524820e-04  6.4415644756266608e-04 1.7764580857000585e-03 -1.1488584515770116e-04  5.7146133013302898e-04 1.7802774477974838e-03 -1.4020030899593929e-04  4.7627705248354864e-04 1.7073462273479801e-03 -1.5459784775624945e-04  4.5196528987637261e-04 1.9608491138373386e-03 -1.9113330667143663e-04  3.7155404074976843e-04 2.1365854520819902e-03 0.0000000000000000e+00  2.9384846343476955e-04 1.8777805246766538e-03 0.0000000000000000e+00  9.2152771359957034e-03 7.7191563651864560e-04 5.4388322117702469e-02  9.1545099890127466e-03 3.9985916250699492e-04 5.4457660496204818e-02  8.8900435348872597e-03 1.5930944096982443e-04 5.4124451144138705e-02  9.5956028106091735e-03 2.4077135934553174e-04 5.4666273851165341e-02  9.2710421326835379e-03 6.3145539946155745e-05 5.4551308267855682e-02  8.7513319451285529e-03 0.0000000000000000e+00 5.3006031467034989e-02  8.5316161092120306e-03 0.0000000000000000e+00 5.1774690701263636e-02  8.4059416647365784e-03 0.0000000000000000e+00 5.0288878460412377e-02  8.3002405782517247e-03 0.0000000000000000e+00 4.9155829010233958e-02  7.9454217808223211e-03 0.0000000000000000e+00 4.8660453014343207e-02  8.0003399929085665e-03 0.0000000000000000e+00 4.7327922994919065e-02  7.8100985621791241e-03 0.0000000000000000e+00 4.6654138401003985e-02  7.6124645809533013e-03 0.0000000000000000e+00 4.5816712180127159e-02  7.7358146049027925e-03 0.0000000000000000e+00 4.4296350942473459e-02  7.6016083902951809e-03 0.0000000000000000e+00 4.3627179712939453e-02  7.4606551860965905e-03 0.0000000000000000e+00 4.3065991461688068e-02  7.4128107749538786e-03 0.0000000000000000e+00 4.1853126761971629e-02  7.3474318733832873e-03 0.0000000000000000e+00 4.0940582825488320e-02  7.4627601194855097e-03 0.0000000000000000e+00 3.9571034991979240e-02  7.3843642762839124e-03 0.0000000000000000e+00 3.9060240972041020e-02  7.1100137391976546e-03 0.0000000000000000e+00 3.8176305019956502e-02  6.7899977248354303e-03 0.0000000000000000e+00 3.7415426464469465e-02  7.0144116157177076e-03 0.0000000000000000e+00 3.5857176620375360e-02  7.0441681940759107e-03 0.0000000000000000e+00 3.5357608920894734e-02  6.7184509877994299e-03 0.0000000000000000e+00 3.4095344335901723e-02  6.8584309800632775e-03 0.0000000000000000e+00 3.2705207885997484e-02  6.4375687606267173e-03 0.0000000000000000e+00 3.2697336732382141e-02  6.5576048822750463e-03 0.0000000000000000e+00 3.1530427578980433e-02  6.7274383914247352e-03 0.0000000000000000e+00 3.0996859738831452e-02  6.3792019775906128e-03 0.0000000000000000e+00 3.0111724103862040e-02  6.1406423613020785e-03 0.0000000000000000e+00 2.9275021120616841e-02  6.1810387083573049e-03 0.0000000000000000e+00 2.7799052046160670e-02  6.0764679313462591e-03 0.0000000000000000e+00 2.7504754589802654e-02  6.1948833635777235e-03 0.0000000000000000e+00 2.6319901584579943e-02  6.2114908169112765e-03 0.0000000000000000e+00 2.5835087201392368e-02  5.9257077450228313e-03 0.0000000000000000e+00 2.5080393978160580e-02  5.5272681079686584e-03 0.0000000000000000e+00 2.4460816782689465e-02  5.7201299981235673e-03 0.0000000000000000e+00 2.3144752187161576e-02  5.6642603660474597e-03 0.0000000000000000e+00 2.2840531806017708e-02  5.7429901431941847e-03 0.0000000000000000e+00 2.1559813933092913e-02  5.5028891682694404e-03 0.0000000000000000e+00 2.1491462922316532e-02  5.2431167464985929e-03 0.0000000000000000e+00 2.0413135083951789e-02  5.3785802984251735e-03 0.0000000000000000e+00 1.9520869814968964e-02  5.2956021794373755e-03 0.0000000000000000e+00 1.9405893233208980e-02  5.3165599427665187e-03 0.0000000000000000e+00 1.8261425000620321e-02  5.0638664352535799e-03 0.0000000000000000e+00 1.8195286985498691e-02  4.6516578792376384e-03 0.0000000000000000e+00 1.7393447951146265e-02  4.8683661558535218e-03 0.0000000000000000e+00 1.6286729965420150e-02  4.7474786418694754e-03 0.0000000000000000e+00 1.6253459515674869e-02  4.4568904199790531e-03 0.0000000000000000e+00 1.5715986964434693e-02  4.5424522038188366e-03 0.0000000000000000e+00 1.4665694287628961e-02  4.4684451163010050e-03 0.0000000000000000e+00 1.4638965502541769e-02  4.5854957634186037e-03 0.0000000000000000e+00 1.3621436610654993e-02  4.4013813632666730e-03 0.0000000000000000e+00 1.3623090298690823e-02  4.1969225258222387e-03 0.0000000000000000e+00 1.3060324737520059e-02  3.8764943171068133e-03 0.0000000000000000e+00 1.2379893968029623e-02  3.9537125645389996e-03 0.0000000000000000e+00 1.1430560850142591e-02  3.7182903122202873e-03 0.0000000000000000e+00 1.1651917725053754e-02  3.7874537905134851e-03 0.0000000000000000