<?xml version="1.0"?>
<VTKFile type="UnstructuredGrid"  version="0.1"  >
<UnstructuredGrid>
<Piece  NumberOfPoints="3069" NumberOfCells="12882">
<Points>
<DataArray  type="Float64"  NumberOfComponents="3"  format="ascii">0 0 0  0 0 4  0 5.65685415 0  50 0 4  50 5.65685415 0  50 0 0  0 0 1  0 0 2  0 0 3  0 1.04967844 3.90746784  0 2.0669806 3.632725  0 3.02052855 3.18424606  0 3.88091111 2.5758636  0 4.62159061 1.82634306  0 5.21972132 0.958802283  0 4.71404505 0  0 3.77123618 0  0 2.82842708 0  0 1.88561809 0  0 0.942809045 0  0.5 0 4  1 0 4  1.5 0 4  2 0 4  2.5 0 4  3 0 4  3.5 0 4  4 0 4  4.5 0 4  5 0 4  5.5 0 4  6 0 4  6.5 0 4  7 0 4  7.5 0 4  8 0 4  8.5 0 4  9 0 4  9.5 0 4  10 0 4  10.5 0 4  11 0 4  11.5 0 4  12 0 4  12.5 0 4  13 0 4  13.5 0 4  14 0 4  14.5 0 4  15 0 4  15.5 0 4  16 0 4  16.5 0 4  17 0 4  17.5 0 4  18 0 4  18.5 0 4  19 0 4  19.5 0 4  20 0 4  20.5 0 4  21 0 4  21.5 0 4  22 0 4  22.5 0 4  23 0 4  23.5 0 4  24 0 4  24.5 0 4  25 0 4  25.5 0 4  26 0 4  26.5 0 4  27 0 4  27.5 0 4  28 0 4  28.5 0 4  29 0 4  29.5 0 4  30 0 4  30.5 0 4  31 0 4  31.5 0 4  32 0 4  32.5 0 4  33 0 4  33.5 0 4  34 0 4  34.5 0 4  35 0 4  35.5 0 4  36 0 4  36.5 0 4  37 0 4  37.5 0 4  38 0 4  38.5 0 4  39 0 4  39.5 0 4  40 0 4  40.5 0 4  41 0 4  41.5 0 4  42 0 4  42.5 0 4  43 0 4  43.5 0 4  44 0 4  44.5 0 4  45 0 4  45.5 0 4  46 0 4  46.5 0 4  47 0 4  47.5 0 4  48 0 4  48.5 0 4  49 0 4  49.5 0 4  50 1.04967844 3.90746784  50 2.0669806 3.632725  50 3.02052855 3.18424606  50 3.88091111 2.5758636  50 4.62159061 1.82634306  50 5.21972132 0.958802283  49.5 5.65685415 0  49 5.65685415 0  48.5 5.65685415 0  48 5.65685415 0  47.5 5.65685415 0  47 5.65685415 0  46.5 5.65685415 0  46 5.65685415 0  45.5 5.65685415 0  45 5.65685415 0  44.5 5.65685415 0  44 5.65685415 0  43.5 5.65685415 0  43 5.65685415 0  42.5 5.65685415 0  42 5.65685415 0  41.5 5.65685415 0  41 5.65685415 0  40.5 5.65685415 0  40 5.65685415 0  39.5 5.65685415 0  39 5.65685415 0  38.5 5.65685415 0  38 5.65685415 0  37.5 5.65685415 0  37 5.65685415 0  36.5 5.65685415 0  36 5.65685415 0  35.5 5.65685415 0  35 5.65685415 0  34.5 5.65685415 0  34 5.65685415 0  33.5 5.65685415 0  33 5.65685415 0  32.5 5.65685415 0  32 5.65685415 0  31.5 5.65685415 0  31 5.65685415 0  30.5 5.65685415 0  30 5.65685415 0  29.5 5.65685415 0  29 5.65685415 0  28.5 5.65685415 0  28 5.65685415 0  27.5 5.65685415 0  27 5.65685415 0  26.5 5.65685415 0  26 5.65685415 0  25.5 5.65685415 0  25 5.65685415 0  24.5 5.65685415 0  24 5.65685415 0  23.5 5.65685415 0  23 5.65685415 0  22.5 5.65685415 0  22 5.65685415 0  21.5 5.65685415 0  21 5.65685415 0  20.5 5.65685415 0  20 5.65685415 0  19.5 5.65685415 0  19 5.65685415 0  18.5 5.65685415 0  18 5.65685415 0  17.5 5.65685415 0  17 5.65685415 0  16.5 5.65685415 0  16 5.65685415 0  15.5 5.65685415 0  15 5.65685415 0  14.5 5.65685415 0  14 5.65685415 0  13.5 5.65685415 0  13 5.65685415 0  12.5 5.65685415 0  12 5.65685415 0  11.5 5.65685415 0  11 5.65685415 0  10.5 5.65685415 0  10 5.65685415 0  9.5 5.65685415 0  9 5.65685415 0  8.5 5.65685415 0  8 5.65685415 0  7.5 5.65685415 0  7 5.65685415 0  6.5 5.65685415 0  6 5.65685415 0  5.5 5.65685415 0  5 5.65685415 0  4.5 5.65685415 0  4 5.65685415 0  3.5 5.65685415 0  3 5.65685415 0  2.5 5.65685415 0  2 5.65685415 0  1.5 5.65685415 0  1 5.65685415 0  0.5 5.65685415 0  50 4.71404505 0  50 3.77123618 0  50 2.82842708 0  50 1.88561809 0  50 0.942809045 0  49.5 0 0  49 0 0  48.5 0 0  48 0 0  47.5 0 0  47 0 0  46.5 0 0  46 0 0  45.5 0 0  45 0 0  44.5 0 0  44 0 0  43.5 0 0  43 0 0  42.5 0 0  42 0 0  41.5 0 0  41 0 0  40.5 0 0  40 0 0  39.5 0 0  39 0 0  38.5 0 0  38 0 0  37.5 0 0  37 0 0  36.5 0 0  36 0 0  35.5 0 0  35 0 0  34.5 0 0  34 0 0  33.5 0 0  33 0 0  32.5 0 0  32 0 0  31.5 0 0  31 0 0  30.5 0 0  30 0 0  29.5 0 0  29 0 0  28.5 0 0  28 0 0  27.5 0 0  27 0 0  26.5 0 0  26 0 0  25.5 0 0  25 0 0  24.5 0 0  24 0 0  23.5 0 0  23 0 0  22.5 0 0  22 0 0  21.5 0 0  21 0 0  20.5 0 0  20 0 0  19.5 0 0  19 0 0  18.5 0 0  18 0 0  17.5 0 0  17 0 0  16.5 0 0  16 0 0  15.5 0 0  15 0 0  14.5 0 0  14 0 0  13.5 0 0  13 0 0  12.5 0 0  12 0 0  11.5 0 0  11 0 0  10.5 0 0  10 0 0  9.5 0 0  9 0 0  8.5 0 0  8 0 0  7.5 0 0  7 0 0  6.5 0 0  6 0 0  5.5 0 0  5 0 0  4.5 0 0  4 0 0  3.5 0 0  3 0 0  2.5 0 0  2 0 0  1.5 0 0  1 0 0  0.5 0 0  50 0 1  50 0 2  50 0 3  0 2.33524275 0.893602192  0 2.87561393 1.93323028  0 4.2367816 0.876864135  0 2.00050235 2.65534091  0 0.981494486 2.34323239  0 3.78543234 1.61830366  0 3.30545568 0.887000024  0 0.812916458 1.58408713  0 1.71948838 1.71268857  0 1.28267908 0.8650629520000001  0 1.21973121 3.10775328  0.5 5.21972132 0.958802223  0.5 4.62159061 1.82634306  0.5 3.88091111 2.5758636  0.5 3.02052855 3.18424606  0.5 2.0669806 3.632725  0.5 1.04967844 3.90746784  1 5.21972132 0.958802223  1 4.62159061 1.82634306  1 3.88091111 2.5758636  1 3.02052855 3.18424606  1 2.0669806 3.632725  1 1.04967844 3.90746784  1.5 5.21972132 0.958802223  1.5 4.62159061 1.82634306  1.5 3.88091111 2.5758636  1.5 3.02052855 3.18424606  1.5 2.0669806 3.632725  1.5 1.04967844 3.90746784  2 5.21972132 0.958802223  2 4.62159061 1.82634306  2 3.88091111 2.5758636  2 3.02052855 3.18424606  2 2.0669806 3.632725  2 1.04967844 3.90746784  2.5 5.21972132 0.958802223  2.5 4.62159061 1.82634306  2.5 3.88091111 2.5758636  2.5 3.02052855 3.18424606  2.5 2.0669806 3.632725  2.5 1.04967844 3.90746784  3 5.21972132 0.958802223  3 4.62159061 1.82634306  3 3.88091111 2.5758636  3 3.02052855 3.18424606  3 2.0669806 3.632725  3 1.04967844 3.90746784  3.5 5.21972132 0.958802223  3.5 4.62159061 1.82634306  3.5 3.88091111 2.5758636  3.5 3.02052855 3.18424606  3.5 2.0669806 3.632725  3.5 1.04967844 3.90746784  4 5.21972132 0.958802223  4 4.62159061 1.82634306  4 3.88091111 2.5758636  4 3.02052855 3.18424606  4 2.0669806 3.632725  4 1.04967844 3.90746784  4.5 5.21972132 0.958802223  4.5 4.62159061 1.82634306  4.5 3.88091111 2.5758636  4.5 3.02052855 3.18424606  4.5 2.0669806 3.632725  4.5 1.04967844 3.90746784  5 5.21972132 0.958802223  5 4.62159061 1.82634306  5 3.88091111 2.5758636  5 3.02052855 3.18424606  5 2.0669806 3.632725  5 1.04967844 3.90746784  5.5 5.21972132 0.958802223  5.5 4.62159061 1.82634306  5.5 3.88091111 2.5758636  5.5 3.02052855 3.18424606  5.5 2.0669806 3.632725  5.5 1.04967844 3.90746784  6 5.21972132 0.958802223  6 4.62159061 1.82634306  6 3.88091111 2.5758636  6 3.02052855 3.18424606  6 2.0669806 3.632725  6 1.04967844 3.90746784  6.5 5.21972132 0.958802223  6.5 4.62159061 1.82634306  6.5 3.88091111 2.5758636  6.5 3.02052855 3.18424606  6.5 2.0669806 3.632725  6.5 1.04967844 3.90746784  7 5.21972132 0.958802223  7 4.62159061 1.82634306  7 3.88091111 2.5758636  7 3.02052855 3.18424606  7 2.0669806 3.632725  7 1.04967844 3.90746784  7.5 5.21972132 0.958802223  7.5 4.62159061 1.82634306  7.5 3.88091111 2.5758636  7.5 3.02052855 3.18424606  7.5 2.0669806 3.632725  7.5 1.04967844 3.90746784  8 5.21972132 0.958802223  8 4.62159061 1.82634306  8 3.88091111 2.5758636  8 3.02052855 3.18424606  8 2.0669806 3.632725  8 1.04967844 3.90746784  8.5 5.21972132 0.958802223  8.5 4.62159061 1.82634306  8.5 3.88091111 2.5758636  8.5 3.02052855 3.18424606  8.5 2.0669806 3.632725  8.5 1.04967844 3.90746784  9 5.21972132 0.958802223  9 4.62159061 1.82634306  9 3.88091111 2.5758636  9 3.02052855 3.18424606  9 2.0669806 3.632725  9 1.04967844 3.90746784  9.5 5.21972132 0.958802223  9.5 4.62159061 1.82634306  9.5 3.88091111 2.5758636  9.5 3.02052855 3.18424606  9.5 2.0669806 3.632725  9.5 1.04967844 3.90746784  10 5.21972132 0.958802223  10 4.62159061 1.82634306  10 3.88091111 2.5758636  10 3.02052855 3.18424606  10 2.0669806 3.632725  10 1.04967844 3.90746784  10.5 5.21972132 0.958802223  10.5 4.62159061 1.82634306  10.5 3.88091111 2.5758636  10.5 3.02052855 3.18424606  10.5 2.0669806 3.632725  10.5 1.04967844 3.90746784  11 5.21972132 0.958802223  11 4.62159061 1.82634306  11 3.88091111 2.5758636  11 3.02052855 3.18424606  11 2.0669806 3.632725  11 1.04967844 3.90746784  11.5 5.21972132 0.958802223  11.5 4.62159061 1.82634306  11.5 3.88091111 2.5758636  11.5 3.02052855 3.18424606  11.5 2.0669806 3.632725  11.5 1.04967844 3.90746784  12 5.21972132 0.958802223  12 4.62159061 1.82634306  12 3.88091111 2.5758636  12 3.02052855 3.18424606  12 2.0669806 3.632725  12 1.04967844 3.90746784  12.5 5.21972132 0.958802223  12.5 4.62159061 1.82634306  12.5 3.88091111 2.5758636  12.5 3.02052855 3.18424606  12.5 2.0669806 3.632725  12.5 1.04967844 3.90746784  13 5.21972132 0.958802223  13 4.62159061 1.82634306  13 3.88091111 2.5758636  13 3.02052855 3.18424606  13 2.0669806 3.632725  13 1.04967844 3.90746784  13.5 5.21972132 0.958802223  13.5 4.62159061 1.82634306  13.5 3.88091111 2.5758636  13.5 3.02052855 3.18424606  13.5 2.0669806 3.632725  13.5 1.04967844 3.90746784  14 5.21972132 0.958802223  14 4.62159061 1.82634306  14 3.88091111 2.5758636  14 3.02052855 3.18424606  14 2.0669806 3.632725  14 1.04967844 3.90746784  14.5 5.21972132 0.958802223  14.5 4.62159061 1.82634306  14.5 3.88091111 2.5758636  14.5 3.02052855 3.18424606  14.5 2.0669806 3.632725  14.5 1.04967844 3.90746784  15 5.21972132 0.958802223  15 4.62159061 1.82634306  15 3.88091111 2.5758636  15 3.02052855 3.18424606  15 2.0669806 3.632725  15 1.04967844 3.90746784  15.5 5.21972132 0.958802223  15.5 4.62159061 1.82634306  15.5 3.88091111 2.5758636  15.5 3.02052855 3.18424606  15.5 2.0669806 3.632725  15.5 1.04967844 3.90746784  16 5.21972132 0.958802223  16 4.62159061 1.82634306  16 3.88091111 2.5758636  16 3.02052855 3.18424606  16 2.0669806 3.632725  16 1.04967844 3.90746784  16.5 5.21972132 0.958802223  16.5 4.62159061 1.82634306  16.5 3.88091111 2.5758636  16.5 3.02052855 3.18424606  16.5 2.0669806 3.632725  16.5 1.04967844 3.90746784  17 5.21972132 0.958802223  17 4.62159061 1.82634306  17 3.88091111 2.5758636  17 3.02052855 3.18424606  17 2.0669806 3.632725  17 1.04967844 3.90746784  17.5 5.21972132 0.958802223  17.5 4.62159061 1.82634306  17.5 3.88091111 2.5758636  17.5 3.02052855 3.18424606  17.
[...]
<PointData  Vectors="f_261141-0"> 
<DataArray  type="Float64"  Name="f_261141-0"  NumberOfComponents="3" format="ascii">0.0000000000000000e+00 0.0000000000000000e+00 0.0000000000000000e+00  0.0000000000000000e+00 0.0000000000000000e+00 2.3105325100908991e-01  0.0000000000000000e+00 4.3971262263393346e-01 0.0000000000000000e+00  2.9473781873684195e+00 0.0000000000000000e+00 3.6555512432473081e+00  3.6717190348513258e+00 3.6163767989184520e-01 3.6599195943427021e+00  3.5770234733526145e+00 0.0000000000000000e+00 3.5493277469709876e+00  0.0000000000000000e+00 0.0000000000000000e+00 8.6049782612139400e-02  0.0000000000000000e+00 0.0000000000000000e+00 1.2714027619359122e-01  0.0000000000000000e+00 0.0000000000000000e+00 1.5324758321827031e-01  0.0000000000000000e+00 3.6420033932573044e-02 2.3495584013257059e-01  0.0000000000000000e+00 1.0930625269094736e-01 2.5680625399072776e-01  0.0000000000000000e+00 1.8298278171840252e-01 2.3655890811721608e-01  0.0000000000000000e+00 2.5469570686502807e-01 2.0219843384391173e-01  0.0000000000000000e+00 3.2778712239914914e-01 1.5882248226590395e-01  0.0000000000000000e+00 3.9368673479564148e-01 8.4870936741745326e-02  0.0000000000000000e+00 3.5345443651513819e-01 0.0000000000000000e+00  0.0000000000000000e+00 2.6813486938175846e-01 0.0000000000000000e+00  0.0000000000000000e+00 1.8828868051517775e-01 0.0000000000000000e+00  0.0000000000000000e+00 1.1772066436529569e-01 0.0000000000000000e+00  0.0000000000000000e+00 5.6276798294462284e-02 0.0000000000000000e+00  3.3294082532141431e-02 0.0000000000000000e+00 2.3160201628083185e-01  6.3245619477878309e-02 0.0000000000000000e+00 2.2957680411538120e-01  9.4432237044032100e-02 0.0000000000000000e+00 2.2968361804211412e-01  1.2601973923141024e-01 0.0000000000000000e+00 2.3142612107475957e-01  1.6049004017315480e-01 0.0000000000000000e+00 2.3106102098267459e-01  1.9016323719273454e-01 0.0000000000000000e+00 2.3746724378860748e-01  2.2399387523437780e-01 0.0000000000000000e+00 2.4208916176019402e-01  2.5389048989410207e-01 0.0000000000000000e+00 2.4995402714770468e-01  2.8572353877958917e-01 0.0000000000000000e+00 2.6021817555935101e-01  3.1745488129575028e-01 0.0000000000000000e+00 2.7255979716993617e-01  3.5091456486416345e-01 0.0000000000000000e+00 2.8129276808612391e-01  3.8410279459355418e-01 0.0000000000000000e+00 2.8088581656770062e-01  4.1549366053786851e-01 0.0000000000000000e+00 2.9031472455257973e-01  4.4448960699354950e-01 0.0000000000000000e+00 3.0325504877654508e-01  4.8105655620066462e-01 0.0000000000000000e+00 3.1016734906633248e-01  5.0936990029818552e-01 0.0000000000000000e+00 3.2253282899821561e-01  5.4084650837907455e-01 0.0000000000000000e+00 3.3503670312340345e-01  5.7228456975978459e-01 0.0000000000000000e+00 3.5032551328621858e-01  6.0554001034060434e-01 0.0000000000000000e+00 3.6020465071737839e-01  6.3840102091773776e-01 0.0000000000000000e+00 3.7077801997696952e-01  6.7048282928821501e-01 0.0000000000000000e+00 3.8081712055573308e-01  7.0482106982878900e-01 0.0000000000000000e+00 3.9884260434350371e-01  7.3641996382135033e-01 0.0000000000000000e+00 4.1126677014542168e-01  7.6798257538782932e-01 0.0000000000000000e+00 4.2767356709467269e-01  8.0096532123927811e-01 0.0000000000000000e+00 4.4344635028869839e-01  8.3071772825080148e-01 0.0000000000000000e+00 4.6284619443367930e-01  8.6061753244182160e-01 0.0000000000000000e+00 4.8560057568119736e-01  8.9415255152506967e-01 0.0000000000000000e+00 4.9907578237357259e-01  9.2370745541376864e-01 0.0000000000000000e+00 5.1996038564644642e-01  9.5367793714707416e-01 0.0000000000000000e+00 5.4468553490631488e-01  9.9153164929068949e-01 0.0000000000000000e+00 5.5363278070347521e-01  1.0254505489435888e+00 0.0000000000000000e+00 5.7910635918546749e-01  1.0550482705266440e+00 0.0000000000000000e+00 6.0663669320573410e-01  1.0871922696391974e+00 0.0000000000000000e+00 6.2934494886173353e-01  1.1178006677673633e+00 0.0000000000000000e+00 6.5624923365092480e-01  1.1498541003140639e+00 0.0000000000000000e+00 6.7790598349890685e-01  1.1787281579358664e+00 0.0000000000000000e+00 7.0590642787663349e-01  1.2107723512418913e+00 0.0000000000000000e+00 7.2634398998245664e-01  1.2412147838223055e+00 0.0000000000000000e+00 7.5695669564391055e-01  1.2725756184838477e+00 0.0000000000000000e+00 7.8091236839589950e-01  1.3065130429050535e+00 0.0000000000000000e+00 8.0625613177601674e-01  1.3347765553376927e+00 0.0000000000000000e+00 8.3258090783205352e-01  1.3671014220638185e+00 0.0000000000000000e+00 8.6120975673358335e-01  1.3949946971241971e+00 0.0000000000000000e+00 8.9811736324103586e-01  1.4292571848276514e+00 0.0000000000000000e+00 9.2463211408073687e-01  1.4610819064218163e+00 0.0000000000000000e+00 9.5663197218503460e-01  1.4921982542144971e+00 0.0000000000000000e+00 9.8469969285571057e-01  1.5211888313106263e+00 0.0000000000000000e+00 1.0183691102522485e+00  1.5532066180281434e+00 0.0000000000000000e+00 1.0518991615369870e+00  1.5822111230796352e+00 0.0000000000000000e+00 1.0886866025422812e+00  1.6135271773612707e+00 0.0000000000000000e+00 1.1268179573267803e+00  1.6452469133238048e+00 0.0000000000000000e+00 1.1595516556905805e+00  1.6739749721641384e+00 0.0000000000000000e+00 1.2005995210845812e+00  1.7057400669650937e+00 0.0000000000000000e+00 1.2367396401064943e+00  1.7366013289149200e+00 0.0000000000000000e+00 1.2727853379915857e+00  1.7634512118266648e+00 0.0000000000000000e+00 1.3095378891727703e+00  1.7965953881658576e+00 0.0000000000000000e+00 1.3499107814071203e+00  1.8274028345572593e+00 0.0000000000000000e+00 1.3922208880727398e+00  1.8577884517476086e+00 0.0000000000000000e+00 1.4323013332357633e+00  1.8848233792198446e+00 0.0000000000000000e+00 1.4770967623569218e+00  1.9156983607327229e+00 0.0000000000000000e+00 1.5216638041860038e+00  1.9472523902819741e+00 0.0000000000000000e+00 1.5624022283334191e+00  1.9770714525394473e+00 0.0000000000000000e+00 1.6049411317963562e+00  2.0090116030388434e+00 0.0000000000000000e+00 1.6511341836034858e+00  2.0391781299544460e+00 0.0000000000000000e+00 1.6941042280021543e+00  2.0669893523779495e+00 0.0000000000000000e+00 1.7398314474865431e+00  2.0981763349866718e+00 0.0000000000000000e+00 1.7844186979386418e+00  2.1299380391378153e+00 0.0000000000000000e+00 1.8324982430950365e+00  2.1572870509056297e+00 0.0000000000000000e+00 1.8807308942210372e+00  2.1873621416587929e+00 0.0000000000000000e+00 1.9331156783424448e+00  2.2174914717291352e+00 0.0000000000000000e+00 1.9801242031153337e+00  2.2472954970873973e+00 0.0000000000000000e+00 2.0310912284115314e+00  2.2733133133490195e+00 0.0000000000000000e+00 2.0879911877401480e+00  2.3031668317620371e+00 0.0000000000000000e+00 2.1398403597974576e+00  2.3335415494138680e+00 0.0000000000000000e+00 2.1898978477643212e+00  2.3645698967895008e+00 0.0000000000000000e+00 2.2440553548465543e+00  2.3919071124051663e+00 0.0000000000000000e+00 2.2988352416371316e+00  2.4221357479784036e+00 0.0000000000000000e+00 2.3515426885623070e+00  2.4482769447012749e+00 0.0000000000000000e+00 2.4111445695250895e+00  2.4775033769624399e+00 0.0000000000000000e+00 2.4682035953743298e+00  2.5078117741048920e+00 0.0000000000000000e+00 2.5253184466659673e+00  2.5338082424078094e+00 0.0000000000000000e+00 2.5826560868755131e+00  2.5624470492779658e+00 0.0000000000000000e+00 2.6439028282751695e+00  2.5934870664745260e+00 0.0000000000000000e+00 2.7002799207839856e+00  2.6206629617595301e+00 0.0000000000000000e+00 2.7571714235576570e+00  2.6490239061517089e+00 0.0000000000000000e+00 2.8180584700460036e+00  2.6784868665556782e+00 0.0000000000000000e+00 2.8744918916642814e+00  2.7055163247081602e+00 0.0000000000000000e+00 2.9368431585275472e+00  2.7348701775187609e+00 0.0000000000000000e+00 2.9984448391281342e+00  2.7628998337016708e+00 0.0000000000000000e+00 3.0606272702188284e+00  2.7881252807958390e+00 0.0000000000000000e+00 3.1242499891611559e+00  2.8153581819076607e+00 0.0000000000000000e+00 3.1868210455672585e+00  2.8424699662289670e+00 0.0000000000000000e+00 3.2459967011724324e+00  2.8700168484782633e+00 0.0000000000000000e+00 3.3002442701225689e+00  2.8946117907472000e+00 0.0000000000000000e+00 3.3512188396863132e+00  2.9117737014734701e+00 0.0000000000000000e+00 3.4038727787619178e+00  2.9251684494986803e+00 0.0000000000000000e+00 3.4587949464375329e+00  2.9352320415177586e+00 0.0000000000000000e+00 3.5184070147870554e+00  2.9406386312320523e+00 0.0000000000000000e+00 3.5810568170421004e+00  2.9801573505929455e+00 1.3657210064480035e-02 3.6528514842376163e+00  3.0346812250418780e+00 3.8137087535526151e-02 3.6668173949227256e+00  3.1101079258805004e+00 7.3224771991859713e-02 3.6880280226741839e+00  3.2135453436621972e+00 1.2310737292890625e-01 3.7037535993305553e+00  3.3455985332112479e+00 1.8921405364307289e-01 3.7180751314390981e+00  3.5121724062193542e+00 2.7155282238967654e-01 3.7054149278063262e+00  3.6388372357338308e+00 3.7547230962973943e-01 3.5811638395176399e+00  3.6038620921758229e+00 3.8884726275971343e-01 3.4997114426714604e+00  3.5693369149390688e+00 4.0195365458431026e-01 3.4170154493592206e+00  3.5346760612632062e+00 4.1270995683590389e-01 3.3346383875866281e+00  3.4972531986703670e+00 4.2233522983521160e-01 3.2548050078440522e+00  3.4580574529783390e+00 4.2874484483826186e-01 3.1770209353160199e+00  3.4180242928825670e+00 4.3338324638818787e-01 3.1011317934007838e+00  3.3777173510902543e+00 4.3478562867389536e-01 3.0269664556837741e+00  3.3389341043302410e+00 4.3584368509464660e-01 2.9525782398930338e+00  3.2994535956343594e+00 4.3562725761884080e-01 2.8816471670881727e+00  3.2616327743793079e+00 4.3682239355450303e-01 2.8105840258169388e+00  3.2240886846979269e+00 4.3637699231177512e-01 2.7424335947545382e+00  3.1870054856626751e+00 4.3625514375287949e-01 2.6763602974794067e+00  3.1501902354415763e+00 4.3641372533502754e-01 2.6115989459017204e+00  3.1147317422733427e+00 4.3568115627393877e-01 2.5477446338198382e+00  3.0795426065409570e+00 4.3510609064834660e-01 2.4842758171439536e+00  3.0436190422211329e+00 4.3409825448107792e-01 2.4222097590540823e+00  3.0082352174393772e+00 4.3227814818221222e-01 2.3627506893466967e+00  2.9726381227307832e+00 4.3308196122472209e-01 2.3024388817840808e+00  2.9370611358826237e+00 4.3166736001776307e-01 2.2423373060705321e+00  2.9018905243142461e+00 4.2871106883601884e-01 2.1826763095074742e+00  2.8661912468733086e+00 4.2935594565410490e-01 2.1220218832998778e+00  2.8309316020831399e+00 4.2721311159007902e-01 2.0644805898910210e+00  2.7951318981954762e+00 4.2890180155218738e-01 2.0075727707628781e+00  2.7599102259055730e+00 4.2799066687191367e-01 1.9517458545546069e+00  2.7242648966283429e+00 4.2437410350567800e-01 1.8989748696944861e+00  2.6886242916872849e+00 4.2534607513267825e-01 1.8465500632575549e+00  2.6534807370869258e+00 4.2730938168427235e-01 1.7932958830201460e+00  2.6182834385841067e+00 4.2482384214930080e-01 1.7437363317996974e+00  2.5837461388998606e+00 4.2689019336865147e-01 1.6924084183626247e+00  2.5481626068261152e+00 4.2593629234990793e-01 1.6434218261270566e+00  2.5126832337689753e+00 4.2327931816342890e-01 1.5958036800188204e+00  2.4768431219917137e+00 4.2456535865796186e-01 1.5484421522101355e+00  2.4414900545027343e+00 4.2592595694787810e-01 1.5018362226176818e+00  2.4058412214105473e+00 4.2572858564127403e-01 1.4561375739242495e+00  2.3706418545767800e+00 4.2765315767594847e-01 1.4099713904032678e+00  2.3352651778018840e+00 4.2822487459607644e-01 1.3643515712269974e+00  2.2990280981059836e+00 4.2764862725655350e-01 1.3202299081559221e+00  2.2628648678127652e+00 4.2621891670968926e-01 1.2775969344685318e+00  2.2268547965476553e+00 4.2930510678154815e-01 1.2350174752635101e+00  2.1907062855541843e+00 4.3015169585849000e-01 1.1923137694950356e+00  2.1541547847401126e+00 4.2803142656480087e-01 1.1519737534458803e+00  2.1164272072340187e+00 4.2898202011974274e-01 1.1102463108659641e+00  2.0804204113548992e+00 4.2822410453431958e-01 1.0668712185993838e+00  2.0445920785822254e+00 4.2597811960364518e-01 1.0267091458982784e+00  2.0084203447549722e+00 4.2720509436205056e-01 9.8781133115304687e-01  1.9718170758834417e+00 4.2850979992002203e-01 9.4927962813426192e-01  1.9352798525811619e+00 4.2670701697663344e-01 9.1350102767079533e-01  1.8985271111557023e+00 4.2681337329840896e-01 8.7577289304451889e-01  1.8620586284362013e+00 4.2544942050992468e-01 8.3841146465058936e-01  1.8248525213763622e+00 4.2469937232446375e-01 8.0439646427403588e-01  1.7882799184543186e+00 4.2534444677355832e-01 7.7000539549674551e-01  1.7520012044437421e+00 4.2571526575064778e-01 7.3783996402731444e-01  1.7153035360792803e+00 4.2708655326207423e-01 7.0266164646903040e-01  1.6787646879203171e+00 4.2357618277777420e-01 6.7078658444733386e-01  1.6414827992047092e+00 4.2348659783632314e-01 6.3941651955751555e-01  1.6043555138793828e+00 4.2545481332440593e-01 6.0855954738452567e-01  1.5679341769377257e+00 4.2524178896739229e-01 5.7850067261986671e-01  1.5306419060384340e+00 4.2478084553878892e-01 5.5089789935325295e-01  1.4932914545144480e+00 4.2588240370866193e-01 5.2241887193741821e-01  1.4562764814631930e+00 4.2380097350614926e-01 4.9665953668784785e-01  1.4191438905673255e+00 4.2507253092712982e-01 4.7092735385988688e-01  1.3817174033579702e+00 4.2656273285870594e-01 4.4674613333820806e-01  1.3452747573040502e+00 4.2629895631450188e-01 4.2233024676203140e-01  1.3082327356443928e+00 4.2706999638101240e-01 3.9935897516756891e-01  1.2706640279759889e+00 4.2848832340079429e-01 3.7698069949505847e-01  1.2329646817646798e+00 4.2823975458486807e-01 3.5589965607834945e-01  1.1966236917632880e+00 4.3024422785716909e-01 3.3311670153095485e-01  1.1592555674916032e+00 4.2870826741828094e-01 3.1257447649165127e-01  1.1218915530493958e+00 4.2899080990734212e-01 2.9035227650234796e-01  1.0846098461894820e+00 4.2737632078176874e-01 2.6971965862318797e-01  1.0476366161012334e+00 4.2859326768500333e-01 2.4862622344333521e-01  1.0109603347743272e+00 4.2724808052244290e-01 2.2949761809129801e-01  9.7290239586262195e-01 4.2741552229374241e-01 2.1063770369184656e-01  9.3561480303034750e-01 4.2618197956913983e-01 1.9223094835079910e-01  8.9735410531071380e-01 4.2790003234043783e-01 1.7489568502555650e-01  8.6003486460832645e-01 4.2829674013761687e-01 1.5937472738835287e-01  8.2283027598401048e-01 4.2801690941231563e-01 1.4450034173522960e-01  7.8575528057946642e-01 4.2861444321010583e-01 1.3038600929825434e-01  7.4854111294942849e-01 4.2825118758112335e-01 1.1626163040775957e-01  7.1083456367290010e-01 4.2666061980940706e-01 1.0287318712028987e-01  6.7372569432790064e-01 4.2653815739923351e-01 9.0712830888030602e-02  6.3651054695453335e-01 4.2817666024582396e-01 7.8543439304740198e-02  5.9926813508451648e-01 4.2976853479816030e-01 6.7077152696797968e-02  5.6209722253252981e-01 4.2848444054169055e-01 5.6628511371043418e-02  5.2459955359444843e-01 4.2891871544319610e-01 4.6318444169843508e-02  4.8617136907552355e-01 4.2792879139951828e-01 3.7473985198903999e-02  4.4871269773707889e-01 4.2711433724243342e-01 2.9078319672999859e-02  4.1129103876408962e-01 4.2687243706668471e-01 2.2707205478174682e-02  3.7374884094385347e-01 4.2766154254074756e-01 1.6596922166011351e-02  3.3724451991028953e-01 4.3027163274083696e-01 1.0788753272685910e-02  2.9992694268672704e-01 4.3086978015360239e-01 7.0264199431115107e-03  2.6284954169310154e-01 4.3069977476304910e-01 3.9462374147449441e-03  2.2507946996275033e-01 4.3333960555121492e-01 2.2194230317195873e-03  1.8726575927183928e-01 4.3623459476811821e-01 2.8446113818417385e-06  1.4998996486764379e-01 4.3516027289662801e-01 1.3549438639392792e-03  1.1200723964195849e-01 4.3574503652703905e-01 1.7117425765137680e-03  7.3680858924938947e-02 4.3652536078648008e-01 0.0000000000000000e+00  3.5591424822038822e-02 4.3787487033890593e-01 0.0000000000000000e+00  3.6513301005452878e+00 2.8167388080129563e-01 3.6243122564032624e+00  3.6315906872142802e+00 2.1747052654072072e-01 3.5951772619363243e+00  3.6083207575852363e+00 1.5228174131034697e-01 3.5714135161792244e+00  3.6041459313030551e+00 1.0554315012217275e-01 3.5711274437198033e+00  3.5863968665811363e+00 4.8487888479929762e-02 3.5565924307828878e+00  3.5408377211850897e+00 0.0000000000000000e+00 3.4644451542986583e+00  3.5090434935615704e+00 0.0000000000000000e+00 3.3906886523773667e+00  3.4763383811687230e+00 0.0000000000000000e+00 3.3140406159732656e+00  3.4449755873620038e+00 0.0000000000000000e+00 3.2440125844360912e+00  3.4100023303746814e+00 0.0000000000000000e+00 3.1802413380830417e+00  3.3795590832793003e+00 0.0000000000000000e+00 3.1132969134845028e+00  3.3461601087816422e+00 0.0000000000000000e+00 3.0524317771542928e+00  3.3156299314559101e+00 0.0000000000000000e+00 2.9898386737377827e+00  3.2873856780711712e+00 0.0000000000000000e+00 2.9217637226226478e+00  3.2530309911825182e+00 0.0000000000000000e+00 2.8679029729649277e+00  3.2211833525612854e+00 0.0000000000000000e+00 2.8085366316450799e+00  3.1894440770648398e+00 0.0000000000000000e+00 2.7429769425603756e+00  3.1579281389374443e+00 0.0000000000000000e+00 2.6785068109861609e+00  3.1271841936853115e+00 0.0000000000000000e+00 2.6155908572831090e+00  3.0925424933371222e+00 0.0000000000000000e+00 2.5641460513533390e+00  3.0566621128001916e+00 0.0000000000000000e+00 2.5070300839884769e+00  3.0222288803499087e+00 0.0000000000000000e+00 2.4471252831721055e+00  2.9921708747550637e+00 0.0000000000000000e+00 2.3829121060547558e+00  2.9588296919346058e+00 0.0000000000000000e+00 2.3347972366996053e+00  2.9250239799625448e+00 0.0000000000000000e+00 2.2744991013343516e+00  2.8934239406607052e+00 0.0000000000000000e+00 2.2138550301561271e+00  2.8551845293001157e+00 0.0000000000000000e+00 2.1660167988696064e+00  2.8228426137475315e+00 0.0000000000000000e+00 2.1042369526975744e+00  2.7893865380905329e+00 0.0000000000000000e+00 2.0548671257402580e+00  2.7526447622096253e+00 0.0000000000000000e+00 1.9986753957832000e+00  2.7170979110317228e+00 0.0000000000000000e+00 1.9432487299751648e+00  2.6847927413762025e+00 0.0000000000000000e+00 1.8840492865081278e+00  2.6487089682048994e+00 0.0000000000000000e+00 1.8402156161170895e+00  2.6138452594638668e+00 0.0000000000000000e+00 1.7869350963662796e+00  2.5793326588528425e+00 0.0000000000000000e+00 1.7406621979752235e+00  2.5406804826313820e+00 0.0000000000000000e+00 1.6943072295315149e+00  2.5044930249693054e+00 0.0000000000000000e+00 1.6437349217986741e+00  2.4730896774211688e+00 0.0000000000000000e+00 1.5873006484571532e+00  2.4379067924229516e+00 0.0000000000000000e+00 1.5446324482313507e+00  2.4039406658468114e+00 0.0000000000000000e+00 1.4915133958262627e+00  2.3662558531611468e+00 0.0000000000000000e+00 1.4539192032040937e+00  2.3296882741113092e+00 0.0000000000000000e+00 1.4045618455871436e+00  2.2972821868755711e+00 0.0000000000000000e+00 1.3573213748461845e+00  2.2609036941165090e+00 0.0000000000000000e+00 1.3187213339077413e+00  2.2252428283276449e+00 0.0000000000000000e+00 1.2677917455799508e+00  2.1868915108839264e+00 0.0000000000000000e+00 1.2324212808804491e+00  2.1496354968293581e+00 0.0000000000000000e+00 1.1847974633790663e+00  2.1152152675338667e+00 0.0000000000000000e+00 1.1392283490381321e+00  2.0764161787609416e+00 0.0000000000000000e+00 1.1083153372051036e+00  2.0379681194314916e+00 0.0000000000000000e+00 1.0707327345160793e+00  2.0036029947691461e+00 0.0000000000000000e+00 1.0256242733148599e+00  1.9654027624503545e+00 0.0000000000000000e+00 9.9471627809887164e-01  1.9321049750011303e+00 0.0000000000000000e+00 9.5215567502063148e-01  1.8955108556347493e+00 0.0000000000000000e+00 9.2192427747625871e-01  1.8579496656232231e+00 0.0000000000000000e+00 8.8450943267122495e-01  1.8199937020991159e+00 0.0000000000000000e+00 8.5076701997379522e-01  1.7853663354910922e+00 0.0000000000000000e+00 8.1167217712221595e-01  1.7473421890021557e+00 0.0000000000000000e+00 7.8627510371117193e-01  1.7138402236295642e+00 0.0000000000000000e+00 7.4520398220062301e-01  1.6772649942095135e+00 0.0000000000000000e+00 7.1792283219213648e-01  