<?xml version="1.0"?>
<VTKFile type="UnstructuredGrid"  version="0.1"  >
<UnstructuredGrid>
<Piece  NumberOfPoints="3069" NumberOfCells="12882">
<Points>
<DataArray  type="Float64"  NumberOfComponents="3"  format="ascii">0 0 0  0 0 4  0 5.65685415 0  50 0 4  50 5.65685415 0  50 0 0  0 0 1  0 0 2  0 0 3  0 1.04967844 3.90746784  0 2.0669806 3.632725  0 3.02052855 3.18424606  0 3.88091111 2.5758636  0 4.62159061 1.82634306  0 5.21972132 0.958802283  0 4.71404505 0  0 3.77123618 0  0 2.82842708 0  0 1.88561809 0  0 0.942809045 0  0.5 0 4  1 0 4  1.5 0 4  2 0 4  2.5 0 4  3 0 4  3.5 0 4  4 0 4  4.5 0 4  5 0 4  5.5 0 4  6 0 4  6.5 0 4  7 0 4  7.5 0 4  8 0 4  8.5 0 4  9 0 4  9.5 0 4  10 0 4  10.5 0 4  11 0 4  11.5 0 4  12 0 4  12.5 0 4  13 0 4  13.5 0 4  14 0 4  14.5 0 4  15 0 4  15.5 0 4  16 0 4  16.5 0 4  17 0 4  17.5 0 4  18 0 4  18.5 0 4  19 0 4  19.5 0 4  20 0 4  20.5 0 4  21 0 4  21.5 0 4  22 0 4  22.5 0 4  23 0 4  23.5 0 4  24 0 4  24.5 0 4  25 0 4  25.5 0 4  26 0 4  26.5 0 4  27 0 4  27.5 0 4  28 0 4  28.5 0 4  29 0 4  29.5 0 4  30 0 4  30.5 0 4  31 0 4  31.5 0 4  32 0 4  32.5 0 4  33 0 4  33.5 0 4  34 0 4  34.5 0 4  35 0 4  35.5 0 4  36 0 4  36.5 0 4  37 0 4  37.5 0 4  38 0 4  38.5 0 4  39 0 4  39.5 0 4  40 0 4  40.5 0 4  41 0 4  41.5 0 4  42 0 4  42.5 0 4  43 0 4  43.5 0 4  44 0 4  44.5 0 4  45 0 4  45.5 0 4  46 0 4  46.5 0 4  47 0 4  47.5 0 4  48 0 4  48.5 0 4  49 0 4  49.5 0 4  50 1.04967844 3.90746784  50 2.0669806 3.632725  50 3.02052855 3.18424606  50 3.88091111 2.5758636  50 4.62159061 1.82634306  50 5.21972132 0.958802283  49.5 5.65685415 0  49 5.65685415 0  48.5 5.65685415 0  48 5.65685415 0  47.5 5.65685415 0  47 5.65685415 0  46.5 5.65685415 0  46 5.65685415 0  45.5 5.65685415 0  45 5.65685415 0  44.5 5.65685415 0  44 5.65685415 0  43.5 5.65685415 0  43 5.65685415 0  42.5 5.65685415 0  42 5.65685415 0  41.5 5.65685415 0  41 5.65685415 0  40.5 5.65685415 0  40 5.65685415 0  39.5 5.65685415 0  39 5.65685415 0  38.5 5.65685415 0  38 5.65685415 0  37.5 5.65685415 0  37 5.65685415 0  36.5 5.65685415 0  36 5.65685415 0  35.5 5.65685415 0  35 5.65685415 0  34.5 5.65685415 0  34 5.65685415 0  33.5 5.65685415 0  33 5.65685415 0  32.5 5.65685415 0  32 5.65685415 0  31.5 5.65685415 0  31 5.65685415 0  30.5 5.65685415 0  30 5.65685415 0  29.5 5.65685415 0  29 5.65685415 0  28.5 5.65685415 0  28 5.65685415 0  27.5 5.65685415 0  27 5.65685415 0  26.5 5.65685415 0  26 5.65685415 0  25.5 5.65685415 0  25 5.65685415 0  24.5 5.65685415 0  24 5.65685415 0  23.5 5.65685415 0  23 5.65685415 0  22.5 5.65685415 0  22 5.65685415 0  21.5 5.65685415 0  21 5.65685415 0  20.5 5.65685415 0  20 5.65685415 0  19.5 5.65685415 0  19 5.65685415 0  18.5 5.65685415 0  18 5.65685415 0  17.5 5.65685415 0  17 5.65685415 0  16.5 5.65685415 0  16 5.65685415 0  15.5 5.65685415 0  15 5.65685415 0  14.5 5.65685415 0  14 5.65685415 0  13.5 5.65685415 0  13 5.65685415 0  12.5 5.65685415 0  12 5.65685415 0  11.5 5.65685415 0  11 5.65685415 0  10.5 5.65685415 0  10 5.65685415 0  9.5 5.65685415 0  9 5.65685415 0  8.5 5.65685415 0  8 5.65685415 0  7.5 5.65685415 0  7 5.65685415 0  6.5 5.65685415 0  6 5.65685415 0  5.5 5.65685415 0  5 5.65685415 0  4.5 5.65685415 0  4 5.65685415 0  3.5 5.65685415 0  3 5.65685415 0  2.5 5.65685415 0  2 5.65685415 0  1.5 5.65685415 0  1 5.65685415 0  0.5 5.65685415 0  50 4.71404505 0  50 3.77123618 0  50 2.82842708 0  50 1.88561809 0  50 0.942809045 0  49.5 0 0  49 0 0  48.5 0 0  48 0 0  47.5 0 0  47 0 0  46.5 0 0  46 0 0  45.5 0 0  45 0 0  44.5 0 0  44 0 0  43.5 0 0  43 0 0  42.5 0 0  42 0 0  41.5 0 0  41 0 0  40.5 0 0  40 0 0  39.5 0 0  39 0 0  38.5 0 0  38 0 0  37.5 0 0  37 0 0  36.5 0 0  36 0 0  35.5 0 0  35 0 0  34.5 0 0  34 0 0  33.5 0 0  33 0 0  32.5 0 0  32 0 0  31.5 0 0  31 0 0  30.5 0 0  30 0 0  29.5 0 0  29 0 0  28.5 0 0  28 0 0  27.5 0 0  27 0 0  26.5 0 0  26 0 0  25.5 0 0  25 0 0  24.5 0 0  24 0 0  23.5 0 0  23 0 0  22.5 0 0  22 0 0  21.5 0 0  21 0 0  20.5 0 0  20 0 0  19.5 0 0  19 0 0  18.5 0 0  18 0 0  17.5 0 0  17 0 0  16.5 0 0  16 0 0  15.5 0 0  15 0 0  14.5 0 0  14 0 0  13.5 0 0  13 0 0  12.5 0 0  12 0 0  11.5 0 0  11 0 0  10.5 0 0  10 0 0  9.5 0 0  9 0 0  8.5 0 0  8 0 0  7.5 0 0  7 0 0  6.5 0 0  6 0 0  5.5 0 0  5 0 0  4.5 0 0  4 0 0  3.5 0 0  3 0 0  2.5 0 0  2 0 0  1.5 0 0  1 0 0  0.5 0 0  50 0 1  50 0 2  50 0 3  0 2.33524275 0.893602192  0 2.87561393 1.93323028  0 4.2367816 0.876864135  0 2.00050235 2.65534091  0 0.981494486 2.34323239  0 3.78543234 1.61830366  0 3.30545568 0.887000024  0 0.812916458 1.58408713  0 1.71948838 1.71268857  0 1.28267908 0.8650629520000001  0 1.21973121 3.10775328  0.5 5.21972132 0.958802223  0.5 4.62159061 1.82634306  0.5 3.88091111 2.5758636  0.5 3.02052855 3.18424606  0.5 2.0669806 3.632725  0.5 1.04967844 3.90746784  1 5.21972132 0.958802223  1 4.62159061 1.82634306  1 3.88091111 2.5758636  1 3.02052855 3.18424606  1 2.0669806 3.632725  1 1.04967844 3.90746784  1.5 5.21972132 0.958802223  1.5 4.62159061 1.82634306  1.5 3.88091111 2.5758636  1.5 3.02052855 3.18424606  1.5 2.0669806 3.632725  1.5 1.04967844 3.90746784  2 5.21972132 0.958802223  2 4.62159061 1.82634306  2 3.88091111 2.5758636  2 3.02052855 3.18424606  2 2.0669806 3.632725  2 1.04967844 3.90746784  2.5 5.21972132 0.958802223  2.5 4.62159061 1.82634306  2.5 3.88091111 2.5758636  2.5 3.02052855 3.18424606  2.5 2.0669806 3.632725  2.5 1.04967844 3.90746784  3 5.21972132 0.958802223  3 4.62159061 1.82634306  3 3.88091111 2.5758636  3 3.02052855 3.18424606  3 2.0669806 3.632725  3 1.04967844 3.90746784  3.5 5.21972132 0.958802223  3.5 4.62159061 1.82634306  3.5 3.88091111 2.5758636  3.5 3.02052855 3.18424606  3.5 2.0669806 3.632725  3.5 1.04967844 3.90746784  4 5.21972132 0.958802223  4 4.62159061 1.82634306  4 3.88091111 2.5758636  4 3.02052855 3.18424606  4 2.0669806 3.632725  4 1.04967844 3.90746784  4.5 5.21972132 0.958802223  4.5 4.62159061 1.82634306  4.5 3.88091111 2.5758636  4.5 3.02052855 3.18424606  4.5 2.0669806 3.632725  4.5 1.04967844 3.90746784  5 5.21972132 0.958802223  5 4.62159061 1.82634306  5 3.88091111 2.5758636  5 3.02052855 3.18424606  5 2.0669806 3.632725  5 1.04967844 3.90746784  5.5 5.21972132 0.958802223  5.5 4.62159061 1.82634306  5.5 3.88091111 2.5758636  5.5 3.02052855 3.18424606  5.5 2.0669806 3.632725  5.5 1.04967844 3.90746784  6 5.21972132 0.958802223  6 4.62159061 1.82634306  6 3.88091111 2.5758636  6 3.02052855 3.18424606  6 2.0669806 3.632725  6 1.04967844 3.90746784  6.5 5.21972132 0.958802223  6.5 4.62159061 1.82634306  6.5 3.88091111 2.5758636  6.5 3.02052855 3.18424606  6.5 2.0669806 3.632725  6.5 1.04967844 3.90746784  7 5.21972132 0.958802223  7 4.62159061 1.82634306  7 3.88091111 2.5758636  7 3.02052855 3.18424606  7 2.0669806 3.632725  7 1.04967844 3.90746784  7.5 5.21972132 0.958802223  7.5 4.62159061 1.82634306  7.5 3.88091111 2.5758636  7.5 3.02052855 3.18424606  7.5 2.0669806 3.632725  7.5 1.04967844 3.90746784  8 5.21972132 0.958802223  8 4.62159061 1.82634306  8 3.88091111 2.5758636  8 3.02052855 3.18424606  8 2.0669806 3.632725  8 1.04967844 3.90746784  8.5 5.21972132 0.958802223  8.5 4.62159061 1.82634306  8.5 3.88091111 2.5758636  8.5 3.02052855 3.18424606  8.5 2.0669806 3.632725  8.5 1.04967844 3.90746784  9 5.21972132 0.958802223  9 4.62159061 1.82634306  9 3.88091111 2.5758636  9 3.02052855 3.18424606  9 2.0669806 3.632725  9 1.04967844 3.90746784  9.5 5.21972132 0.958802223  9.5 4.62159061 1.82634306  9.5 3.88091111 2.5758636  9.5 3.02052855 3.18424606  9.5 2.0669806 3.632725  9.5 1.04967844 3.90746784  10 5.21972132 0.958802223  10 4.62159061 1.82634306  10 3.88091111 2.5758636  10 3.02052855 3.18424606  10 2.0669806 3.632725  10 1.04967844 3.90746784  10.5 5.21972132 0.958802223  10.5 4.62159061 1.82634306  10.5 3.88091111 2.5758636  10.5 3.02052855 3.18424606  10.5 2.0669806 3.632725  10.5 1.04967844 3.90746784  11 5.21972132 0.958802223  11 4.62159061 1.82634306  11 3.88091111 2.5758636  11 3.02052855 3.18424606  11 2.0669806 3.632725  11 1.04967844 3.90746784  11.5 5.21972132 0.958802223  11.5 4.62159061 1.82634306  11.5 3.88091111 2.5758636  11.5 3.02052855 3.18424606  11.5 2.0669806 3.632725  11.5 1.04967844 3.90746784  12 5.21972132 0.958802223  12 4.62159061 1.82634306  12 3.88091111 2.5758636  12 3.02052855 3.18424606  12 2.0669806 3.632725  12 1.04967844 3.90746784  12.5 5.21972132 0.958802223  12.5 4.62159061 1.82634306  12.5 3.88091111 2.5758636  12.5 3.02052855 3.18424606  12.5 2.0669806 3.632725  12.5 1.04967844 3.90746784  13 5.21972132 0.958802223  13 4.62159061 1.82634306  13 3.88091111 2.5758636  13 3.02052855 3.18424606  13 2.0669806 3.632725  13 1.04967844 3.90746784  13.5 5.21972132 0.958802223  13.5 4.62159061 1.82634306  13.5 3.88091111 2.5758636  13.5 3.02052855 3.18424606  13.5 2.0669806 3.632725  13.5 1.04967844 3.90746784  14 5.21972132 0.958802223  14 4.62159061 1.82634306  14 3.88091111 2.5758636  14 3.02052855 3.18424606  14 2.0669806 3.632725  14 1.04967844 3.90746784  14.5 5.21972132 0.958802223  14.5 4.62159061 1.82634306  14.5 3.88091111 2.5758636  14.5 3.02052855 3.18424606  14.5 2.0669806 3.632725  14.5 1.04967844 3.90746784  15 5.21972132 0.958802223  15 4.62159061 1.82634306  15 3.88091111 2.5758636  15 3.02052855 3.18424606  15 2.0669806 3.632725  15 1.04967844 3.90746784  15.5 5.21972132 0.958802223  15.5 4.62159061 1.82634306  15.5 3.88091111 2.5758636  15.5 3.02052855 3.18424606  15.5 2.0669806 3.632725  15.5 1.04967844 3.90746784  16 5.21972132 0.958802223  16 4.62159061 1.82634306  16 3.88091111 2.5758636  16 3.02052855 3.18424606  16 2.0669806 3.632725  16 1.04967844 3.90746784  16.5 5.21972132 0.958802223  16.5 4.62159061 1.82634306  16.5 3.88091111 2.5758636  16.5 3.02052855 3.18424606  16.5 2.0669806 3.632725  16.5 1.04967844 3.90746784  17 5.21972132 0.958802223  17 4.62159061 1.82634306  17 3.88091111 2.5758636  17 3.02052855 3.18424606  17 2.0669806 3.632725  17 1.04967844 3.90746784  17.5 5.21972132 0.958802223  17.5 4.62159061 1.82634306  17.5 3.88091111 2.5758636  17.5 3.02052855 3.18424606  17.
[...]
<PointData  Vectors="f_261141-0"> 
<DataArray  type="Float64"  Name="f_261141-0"  NumberOfComponents="3" format="ascii">0.0000000000000000e+00 0.0000000000000000e+00 0.0000000000000000e+00  0.0000000000000000e+00 0.0000000000000000e+00 8.3992423105097680e-01  0.0000000000000000e+00 1.0620257345918973e+00 0.0000000000000000e+00  1.0184699249223771e+01 0.0000000000000000e+00 -2.6442762878808916e+00  9.3629325025142460e+00 1.1338395150532719e+00 -3.6642300384029096e+00  9.4828553285344537e+00 0.0000000000000000e+00 -3.5398239890558170e+00  0.0000000000000000e+00 0.0000000000000000e+00 1.6853285370163137e-01  0.0000000000000000e+00 0.0000000000000000e+00 4.0364930871333304e-01  0.0000000000000000e+00 0.0000000000000000e+00 6.6233449724383275e-01  0.0000000000000000e+00 2.5378929617197793e-01 8.0070169970778993e-01  0.0000000000000000e+00 4.4340709066620010e-01 7.0489666693300013e-01  0.0000000000000000e+00 6.2526216621402286e-01 6.0695897915672081e-01  0.0000000000000000e+00 7.8028636878267754e-01 4.8209826116258658e-01  0.0000000000000000e+00 9.0571122490428935e-01 3.2483711625999362e-01  0.0000000000000000e+00 1.0013243026322844e+00 1.6823175200943308e-01  0.0000000000000000e+00 9.0165156572567429e-01 0.0000000000000000e+00  0.0000000000000000e+00 7.3503957591741587e-01 0.0000000000000000e+00  0.0000000000000000e+00 5.6680964990738847e-01 0.0000000000000000e+00  0.0000000000000000e+00 3.9193873102941645e-01 0.0000000000000000e+00  0.0000000000000000e+00 2.0214138342728705e-01 0.0000000000000000e+00  9.9929316097922327e-02 0.0000000000000000e+00 8.4233785185805155e-01  2.0235706530787062e-01 0.0000000000000000e+00 8.4228902325362420e-01  3.0476458698832737e-01 0.0000000000000000e+00 8.4212576096097735e-01  4.0939036157924236e-01 0.0000000000000000e+00 8.3780566148749214e-01  5.0576824291097278e-01 0.0000000000000000e+00 8.4664620408368907e-01  6.1241954679637312e-01 0.0000000000000000e+00 8.3582685895058562e-01  7.1070419318448674e-01 0.0000000000000000e+00 8.3287359206204525e-01  8.1694523937495400e-01 0.0000000000000000e+00 8.1991634520227574e-01  9.1905903759121110e-01 0.0000000000000000e+00 8.0926740753482662e-01  1.0200225218574468e+00 0.0000000000000000e+00 7.9702467126635757e-01  1.1197287857713316e+00 0.0000000000000000e+00 7.9122796230785819e-01  1.2211749309160884e+00 0.0000000000000000e+00 7.9134920575258405e-01  1.3229581664423291e+00 0.0000000000000000e+00 7.8573651472189232e-01  1.4308809316508690e+00 0.0000000000000000e+00 7.6514116843407909e-01  1.5291526202579306e+00 0.0000000000000000e+00 7.5877586664511631e-01  1.6358515560698792e+00 0.0000000000000000e+00 7.4618930740775558e-01  1.7378060474018915e+00 0.0000000000000000e+00 7.3521003676765173e-01  1.8402279487015016e+00 0.0000000000000000e+00 7.2007051966721836e-01  1.9396638422127852e+00 0.0000000000000000e+00 7.1240469074028256e-01  2.0396698481326547e+00 0.0000000000000000e+00 7.0185893680343470e-01  2.1403867823818161e+00 0.0000000000000000e+00 6.9696465509573324e-01  2.2405600880632788e+00 0.0000000000000000e+00 6.7520581961625403e-01  2.3433528005738031e+00 0.0000000000000000e+00 6.6416081441159147e-01  2.4462136864106760e+00 0.0000000000000000e+00 6.4598741656676439e-01  2.5452981971154762e+00 0.0000000000000000e+00 6.3706907205453112e-01  2.6503741533810867e+00 0.0000000000000000e+00 6.1192499077281870e-01  2.7532830523005409e+00 0.0000000000000000e+00 5.9005985916095438e-01  2.8520499716430456e+00 0.0000000000000000e+00 5.7659572936764392e-01  2.9549605236622569e+00 0.0000000000000000e+00 5.5620019314590829e-01  3.0589729846273257e+00 0.0000000000000000e+00 5.2528377718793262e-01  3.1511294381693964e+00 0.0000000000000000e+00 5.2594083603807817e-01  3.2498129077916151e+00 0.0000000000000000e+00 4.9754518324790786e-01  3.3522953377024765e+00 0.0000000000000000e+00 4.6988647626821212e-01  3.4558919283718250e+00 0.0000000000000000e+00 4.4165929801513004e-01  3.5615993155658234e+00 0.0000000000000000e+00 4.1463531642712781e-01  3.6650180311743217e+00 0.0000000000000000e+00 3.9232271465943230e-01  3.7694325342130601e+00 0.0000000000000000e+00 3.6787805251254191e-01  3.8696170551364095e+00 0.0000000000000000e+00 3.4851768193523974e-01  3.9742299426511574e+00 0.0000000000000000e+00 3.1421859636631422e-01  4.0746162306245139e+00 0.0000000000000000e+00 2.9168888503373186e-01  4.1706656764606951e+00 0.0000000000000000e+00 2.7060521552596362e-01  4.2751298837915295e+00 0.0000000000000000e+00 2.4204210105316720e-01  4.3734908413224112e+00 0.0000000000000000e+00 2.1395131901795064e-01  4.4802204426815617e+00 0.0000000000000000e+00 1.6835138904847879e-01  4.5765996441911927e+00 0.0000000000000000e+00 1.4223441866747286e-01  4.6760166070159208e+00 0.0000000000000000e+00 1.0885770894975508e-01  4.7766774978114741e+00 0.0000000000000000e+00 8.3751972729609214e-02  4.8798857100507389e+00 0.0000000000000000e+00 4.9346003446612274e-02  4.9810189729632492e+00 0.0000000000000000e+00 1.7980866873364382e-02  5.0835965218569656e+00 0.0000000000000000e+00 -1.7003717881652853e-02  5.1863580122925406e+00 0.0000000000000000e+00 -5.7805762536526695e-02  5.2850723059376516e+00 0.0000000000000000e+00 -8.5633748102928522e-02  5.3888162363029384e+00 0.0000000000000000e+00 -1.3098752480700263e-01  5.4868402149828297e+00 0.0000000000000000e+00 -1.6113373151417898e-01  5.5885359338821115e+00 0.0000000000000000e+00 -2.0300855048049146e-01  5.6942160336312035e+00 0.0000000000000000e+00 -2.4213185604558604e-01  5.7943560407062833e+00 0.0000000000000000e+00 -2.8524410191990807e-01  5.8923206793754304e+00 0.0000000000000000e+00 -3.2211110931710324e-01  5.9935437658846871e+00 0.0000000000000000e+00 -3.5813981354830882e-01  6.0973414137153323e+00 0.0000000000000000e+00 -4.0874682090052783e-01  6.1973521491132484e+00 0.0000000000000000e+00 -4.5991431052264170e-01  6.2953081632638908e+00 0.0000000000000000e+00 -4.9475230282465810e-01  6.3967093470210497e+00 0.0000000000000000e+00 -5.4291585982516943e-01  6.4981936318263669e+00 0.0000000000000000e+00 -5.9030318368764179e-01  6.5955509228296192e+00 0.0000000000000000e+00 -6.2335406374710334e-01  6.6997887486956893e+00 0.0000000000000000e+00 -6.7180838363953699e-01  6.8027829054964357e+00 0.0000000000000000e+00 -7.1974058108617323e-01  6.9003041888541459e+00 0.0000000000000000e+00 -7.6611359555042347e-01  7.0018691152436112e+00 0.0000000000000000e+00 -8.1985901266286232e-01  7.0994234784336276e+00 0.0000000000000000e+00 -8.7000501042667011e-01  7.1983523118376169e+00 0.0000000000000000e+00 -9.1707151066432746e-01  7.2973553499304700e+00 0.0000000000000000e+00 -9.7162698704854578e-01  7.4002365300848414e+00 0.0000000000000000e+00 -1.0330558345159919e+00  7.5007106997901047e+00 0.0000000000000000e+00 -1.0864288065020535e+00  7.6021970579368432e+00 0.0000000000000000e+00 -1.1379794963443925e+00  7.6992692607155568e+00 0.0000000000000000e+00 -1.1908061906089120e+00  7.8013147263863836e+00 0.0000000000000000e+00 -1.2478721390399770e+00  7.8990772293059974e+00 0.0000000000000000e+00 -1.3011011024983214e+00  8.0019496644109811e+00 0.0000000000000000e+00 -1.3688513285965915e+00  8.0999729239092080e+00 0.0000000000000000e+00 -1.4254683723602166e+00  8.1978919447084309e+00 0.0000000000000000e+00 -1.4809862033241217e+00  8.3028242252573818e+00 0.0000000000000000e+00 -1.5430988755198085e+00  8.4041945834834841e+00 0.0000000000000000e+00 -1.6064848548159811e+00  8.5003261358848494e+00 0.0000000000000000e+00 -1.6587717935285602e+00  8.6028615201009480e+00 0.0000000000000000e+00 -1.7277165499990008e+00  8.7000128861917414e+00 0.0000000000000000e+00 -1.7854547606273607e+00  8.7997313000495581e+00 0.0000000000000000e+00 -1.8446680132366648e+00  8.8995271561740488e+00 0.0000000000000000e+00 -1.9133165661596436e+00  8.9992925268870927e+00 0.0000000000000000e+00 -1.9859527409417028e+00  9.0957735759146718e+00 0.0000000000000000e+00 -2.0481154460178721e+00  9.1961021776952734e+00 0.0000000000000000e+00 -2.1198070055622544e+00  9.2925454431070857e+00 0.0000000000000000e+00 -2.1831901927963875e+00  9.3902014836913867e+00 0.0000000000000000e+00 -2.2466694228776869e+00  9.4867766999935945e+00 0.0000000000000000e+00 -2.3017886733905111e+00  9.5858731200628053e+00 0.0000000000000000e+00 -2.3553397458498577e+00  9.6926451170794028e+00 0.0000000000000000e+00 -2.4003557233470150e+00  9.8072252361559968e+00 0.0000000000000000e+00 -2.4410425521469246e+00  9.9299848994800435e+00 0.0000000000000000e+00 -2.4960676258129988e+00  1.0058536440107515e+01 0.0000000000000000e+00 -2.5680009740730365e+00  1.0148870269438374e+01 2.8676854804067758e-01 -2.6632693239583181e+00  1.0090327822628952e+01 5.4439578244447051e-01 -2.7583788600054522e+00  9.9934311153210391e+00 7.7513052420185813e-01 -2.8997157638060989e+00  9.8637318511873708e+00 9.4907796396468613e-01 -3.0775351873584458e+00  9.7090393097139582e+00 1.0653503963269226e+00 -3.2811562207201854e+00  9.5317108901459360e+00 1.1206126151319575e+00 -3.4789277956565381e+00  9.2771156011910012e+00 1.1182937021688826e+00 -3.5811524010039681e+00  9.1916259350562832e+00 1.1046617078626433e+00 -3.4939928096382094e+00  9.1074950863942004e+00 1.0941229140722151e+00 -3.4088464888217729e+00  9.0226166630443547e+00 1.0818860922785207e+00 -3.3215577135389167e+00  8.9396521920963394e+00 1.0726910467884652e+00 -3.2421710887113204e+00  8.8574472361848482e+00 1.0681719465056523e+00 -3.1661519727018725e+00  8.7752884695518105e+00 1.0628436756637270e+00 -3.0900256635862879e+00  8.6917593189449605e+00 1.0616735961122969e+00 -3.0151986190994493e+00  8.6072498325508029e+00 1.0605011077416888e+00 -2.9402951103048740e+00  8.5227209314438692e+00 1.0595977896032724e+00 -2.8675333770957736e+00  8.4365223499099340e+00 1.0603212827165374e+00 -2.7950651598294733e+00  8.3495254878668028e+00 1.0647266435090921e+00 -2.7270144249268355e+00  8.2614534227290157e+00 1.0647922522037261e+00 -2.6574292541689557e+00  8.1725402948096750e+00 1.0644786743497310e+00 -2.5903875256673157e+00  8.0836965745486573e+00 1.0677318843332093e+00 -2.5296179266826018e+00  7.9902675602643463e+00 1.0660105444157002e+00 -2.4661480952117549e+00  7.9011646349374747e+00 1.0677517033876736e+00 -2.4007207604392438e+00  7.8103504467370346e+00 1.0715376676564525e+00 -2.3378470580143347e+00  7.7200275513436587e+00 1.0729909588416551e+00 -2.2776252590927109e+00  7.6287545957966829e+00 1.0760152504828038e+00 -2.2166475847134626e+00  7.5371622882097125e+00 1.0780793603086729e+00 -2.1557829738537588e+00  7.4448790552190962e+00 1.0785184054988399e+00 -2.0949565840461060e+00  7.3517773868888145e+00 1.0809334475003778e+00 -2.0379840239156444e+00  7.2590132502257347e+00 1.0769275105726177e+00 -1.9818082117795273e+00  7.1661715874484209e+00 1.0785433534845916e+00 -1.9291816309212746e+00  7.0730138760084786e+00 1.0794338953340119e+00 -1.8762764955751641e+00  6.9789406229814492e+00 1.0799598014492642e+00 -1.8242250196252188e+00  6.8849072869460111e+00 1.0792968396310201e+00 -1.7730995610326468e+00  6.7907519812256245e+00 1.0809935655770311e+00 -1.7236277401864888e+00  6.6966336232917740e+00 1.0793561465627575e+00 -1.6723761384937301e+00  6.6021151459725642e+00 1.0798315775143268e+00 -1.6232601713063253e+00  6.5077083524927319e+00 1.0817628056782795e+00 -1.5757483814553237e+00  6.4132592130189758e+00 1.0791972170046649e+00 -1.5281679180238903e+00  6.3183551045931887e+00 1.0772637592560805e+00 -1.4816554865858094e+00  6.2239232650434015e+00 1.0765232242898988e+00 -1.4361749750560853e+00  6.1294194742417663e+00 1.0752264545106118e+00 -1.3907055812003879e+00  6.0352563821157901e+00 1.0742283340079701e+00 -1.3456275764446983e+00  5.9404576899937407e+00 1.0768682420373827e+00 -1.3015024501955637e+00  5.8455168600911689e+00 1.0791108920464421e+00 -1.2593611539072120e+00  5.7509416710275056e+00 1.0754003246792661e+00 -1.2166743579700550e+00  5.6559485986396236e+00 1.0743788813746689e+00 -1.1751536033859065e+00  5.5611595587929248e+00 1.0761119500768928e+00 -1.1352710767283964e+00  5.4670663743871977e+00 1.0729314958658245e+00 -1.0934778601566131e+00  5.3721347737598251e+00 1.0742299358704710e+00 -1.0534108952296912e+00  5.2772382714498960e+00 1.0759079231689832e+00 -1.0149455303873420e+00  5.1825824216063685e+00 1.0750477443692554e+00 -9.7534856859617258e-01  5.0886502841883132e+00 1.0752155573989739e+00 -9.3756240389713807e-01  4.9937090978411787e+00 1.0769775291275092e+00 -9.0109271577425754e-01  4.8987116322115645e+00 1.0750831219507111e+00 -8.6241666986376997e-01  4.8029159214825548e+00 1.0764331903140962e+00 -8.2435369255315349e-01  4.7075950323338400e+00 1.0776584750379745e+00 -7.9092872744147613e-01  4.6113356205494318e+00 1.0791829069740735e+00 -7.5946675190309243e-01  4.5150311265386751e+00 1.0758118029930297e+00 -7.2688383779601895e-01  4.4207841009207529e+00 1.0776488835802656e+00 -6.9401888448450977e-01  4.3258549951037102e+00 1.0777772272943116e+00 -6.6426331302634478e-01  4.2299862253739446e+00 1.0779642782508070e+00 -6.3278341695503726e-01  4.1343186568956707e+00 1.0761759532706121e+00 -6.0072666920915441e-01  4.0386475711010217e+00 1.0786060097590686e+00 -5.7197145586052067e-01  3.9436084797193240e+00 1.0780848908854586e+00 -5.4461542740453717e-01  3.8488987361038078e+00 1.0782591019102465e+00 -5.1838033783193749e-01  3.7527325834184100e+00 1.0807989178196491e+00 -4.9337654150407456e-01  3.6570167645298959e+00 1.0778787894925459e+00 -4.6771546057565166e-01  3.5603690877760266e+00 1.0768646033057705e+00 -4.4261078610139570e-01  3.4643680862897543e+00 1.0780621050938199e+00 -4.2020214161408498e-01  3.3683388299623642e+00 1.0761217946544999e+00 -3.9624772718534063e-01  3.2722123030938963e+00 1.0710942423167014e+00 -3.7150391498738439e-01  3.1765811354739673e+00 1.0718494844027728e+00 -3.5274584762418965e-01  3.0806601375614728e+00 1.0701786342938473e+00 -3.3214934995892648e-01  2.9850982647734865e+00 1.0712744450426157e+00 -3.1156610726609563e-01  2.8897435836945435e+00 1.0714597437690916e+00 -2.9051289434590083e-01  2.7935474461146952e+00 1.0717114654496487e+00 -2.6922180219264841e-01  2.6970267210489935e+00 1.0719260575108909e+00 -2.4921714762326574e-01  2.6008822779398244e+00 1.0735755677150693e+00 -2.3172520849664402e-01  2.5048805550739703e+00 1.0737735280619456e+00 -2.1353108269894480e-01  2.4086896397342072e+00 1.0741184512628499e+00 -1.9565592312296656e-01  2.3129227661771057e+00 1.0723857473248350e+00 -1.7804017011169326e-01  2.2173172045288130e+00 1.0723858422142678e+00 -1.6308676609164446e-01  2.1217460259819774e+00 1.0742931213607625e+00 -1.4864176387295544e-01  2.0250035758841967e+00 1.0744317233987890e+00 -1.3428703046055504e-01  1.9282208886659420e+00 1.0728560024090028e+00 -1.1813626322489695e-01  1.8319722617587813e+00 1.0755567943851656e+00 -1.0562981719764632e-01  1.7350046407506539e+00 1.0769796367331346e+00 -9.2731265468371959e-02  1.6385686193507021e+00 1.0730261251050375e+00 -7.8541165541537811e-02  1.5420980646052851e+00 1.0734869499543553e+00 -6.8596759105255631e-02  1.4463662569976061e+00 1.0730347952562829e+00 -5.9648353650718147e-02  1.3504218041672666e+00 1.0736706577552115e+00 -4.9971204821842592e-02  1.2543331141000083e+00 1.0727323487230944e+00 -3.8724335565880993e-02  1.1581048360473962e+00 1.0756251729141804e+00 -3.2098010756912577e-02  1.0617305803990467e+00 1.0763246520633312e+00 -2.5183032899996249e-02  9.6520241058618628e-01 1.0760714429671625e+00 -1.8318297364347289e-02  8.6821098831893406e-01 1.0749091261019763e+00 -1.2963186075700048e-02  7.7167283743877824e-01 1.0739737408298122e+00 -8.9987925432594446e-03  6.7464994127773414e-01 1.0738193709818318e+00 -5.6659885847134854e-03  5.7728098506558023e-01 1.0719750784172091e+00 -1.0195357687269983e-03  4.8093469792075466e-01 1.0702210309777367e+00 9.6045524959591450e-04  3.8434076815783086e-01 1.0706512543490201e+00 -6.8767154882826278e-05  2.8777051129764053e-01 1.0660882010763315e+00 5.0748268619421524e-04  1.9144302713696187e-01 1.0644448628960712e+00 0.0000000000000000e+00  9.5454049101709557e-02 1.0610108258772450e+00 0.0000000000000000e+00  9.3919332253488257e+00 9.6423113063246257e-01 -3.6215410183715560e+00  9.4166471770241458e+00 7.7928069951487489e-01 -3.5932171262898822e+00  9.4448300780770200e+00 6.0047688483447714e-01 -3.5727920200059788e+00  9.4563451321398677e+00 3.9468572004785873e-01 -3.5625227447008410e+00  9.4724255262827963e+00 1.9166419471594753e-01 -3.5518657418872519e+00  9.4014613036256822e+00 0.0000000000000000e+00 -3.4607379827941291e+00  9.3167248430530556e+00 0.0000000000000000e+00 -3.3875170076171086e+00  9.2286956377534199e+00 0.0000000000000000e+00 -3.3092727155916242e+00  9.1373441098856123e+00 0.0000000000000000e+00 -3.2393878920300589e+00  9.0462188232125236e+00 0.0000000000000000e+00 -3.1751415237709097e+00  8.9520691876370080e+00 0.0000000000000000e+00 -3.1056216288624960e+00  8.8605991653073861e+00 0.0000000000000000e+00 -3.0446403362283223e+00  8.7640562599755363e+00 0.0000000000000000e+00 -2.9829400551949483e+00  8.6676493584003609e+00 0.0000000000000000e+00 -2.9121120051826668e+00  8.5724553168371127e+00 0.0000000000000000e+00 -2.8597319270034931e+00  8.4771227152276687e+00 0.0000000000000000e+00 -2.7996884840203671e+00  8.3845339003746524e+00 0.0000000000000000e+00 -2.7352068762077706e+00  8.2913185529114646e+00 0.0000000000000000e+00 -2.6667169474694785e+00  8.1947892520952852e+00 0.0000000000000000e+00 -2.5997343017956425e+00  8.1021573010435066e+00 0.0000000000000000e+00 -2.5496383185119624e+00  8.0102382153096112e+00 0.0000000000000000e+00 -2.4934666622103854e+00  7.9184566860002770e+00 0.0000000000000000e+00 -2.4289041079853102e+00  7.8223982244899162e+00 0.0000000000000000e+00 -2.3637605408404898e+00  7.7257837071767721e+00 0.0000000000000000e+00 -2.3193370480224664e+00  7.6332216764435836e+00 0.0000000000000000e+00 -2.2575200699834799e+00  7.5388919277898987e+00 0.0000000000000000e+00 -2.1963301886222988e+00  7.4477934928549425e+00 0.0000000000000000e+00 -2.1450077616736367e+00  7.3541182529653426e+00 0.0000000000000000e+00 -2.0821131843831013e+00  7.2585076496470515e+00 0.0000000000000000e+00 -2.0338756876157551e+00  7.1670887405149495e+00 0.0000000000000000e+00 -1.9789773295733750e+00  7.0736605362201441e+00 0.0000000000000000e+00 -1.9202181588963958e+00  6.9773505102747393e+00 0.0000000000000000e+00 -1.8650733574151985e+00  6.8815253170629243e+00 0.0000000000000000e+00 -1.8213784775860342e+00  6.7870932618669126e+00 0.0000000000000000e+00 -1.7684261123120144e+00  6.6921756676483222e+00 0.0000000000000000e+00 -1.7232072850188411e+00  6.6015421611819427e+00 0.0000000000000000e+00 -1.6781690078908613e+00  6.5084381424995010e+00 0.0000000000000000e+00 -1.6268443087384425e+00  6.4141493363478741e+00 0.0000000000000000e+00 -1.5658072676017165e+00  6.3175184322039470e+00 0.0000000000000000e+00 -1.5249533230273091e+00  6.2211799327043007e+00 0.0000000000000000e+00 -1.4696276576231653e+00  6.1284298243951056e+00 0.0000000000000000e+00 -1.4345882132787966e+00  6.0331732073109610e+00 0.0000000000000000e+00 -1.3846390348472053e+00  5.9346557453805575e+00 0.0000000000000000e+00 -1.3352385570851728e+00  5.8392160383361986e+00 0.0000000000000000e+00 -1.2962815436111881e+00  5.7469575960103558e+00 0.0000000000000000e+00 -1.2468275292505653e+00  5.6550058983827780e+00 0.0000000000000000e+00 -1.2143239558275432e+00  5.5634045046895402e+00 0.0000000000000000e+00 -1.1676900247134017e+00  5.4669606021654529e+00 0.0000000000000000e+00 -1.1217446544917495e+00  5.3758985766098437e+00 0.0000000000000000e+00 -1.0941383459140765e+00  5.2826255755827889e+00 0.0000000000000000e+00 -1.0544721009799507e+00  5.1866876441952030e+00 0.0000000000000000e+00 -1.0054375290962982e+00  5.0915909734695406e+00 0.0000000000000000e+00 -9.7524387626085651e-01  4.9955401918326947e+00 0.0000000000000000e+00 -9.3621264391883752e-01  4.8967359868653357e+00 0.0000000000000000e+00 -9.0603407487027487e-01  4.8030165867179697e+00 0.0000000000000000e+00 -8.7095336208277607e-01  4.7075963497977975e+00 0.0000000000000000e+00 -8.4195853210907234e-01  4.6112102601291829e+00 0.0000000000000000e+00 -8.0026232363646044e-01 