<?xml version="1.0"?>
<VTKFile type="UnstructuredGrid"  version="0.1"  >
<UnstructuredGrid>
<Piece  NumberOfPoints="3069" NumberOfCells="12882">
<Points>
<DataArray  type="Float64"  NumberOfComponents="3"  format="ascii">0 0 0  0 0 4  0 5.65685415 0  50 0 4  50 5.65685415 0  50 0 0  0 0 1  0 0 2  0 0 3  0 1.04967844 3.90746784  0 2.0669806 3.632725  0 3.02052855 3.18424606  0 3.88091111 2.5758636  0 4.62159061 1.82634306  0 5.21972132 0.958802283  0 4.71404505 0  0 3.77123618 0  0 2.82842708 0  0 1.88561809 0  0 0.942809045 0  0.5 0 4  1 0 4  1.5 0 4  2 0 4  2.5 0 4  3 0 4  3.5 0 4  4 0 4  4.5 0 4  5 0 4  5.5 0 4  6 0 4  6.5 0 4  7 0 4  7.5 0 4  8 0 4  8.5 0 4  9 0 4  9.5 0 4  10 0 4  10.5 0 4  11 0 4  11.5 0 4  12 0 4  12.5 0 4  13 0 4  13.5 0 4  14 0 4  14.5 0 4  15 0 4  15.5 0 4  16 0 4  16.5 0 4  17 0 4  17.5 0 4  18 0 4  18.5 0 4  19 0 4  19.5 0 4  20 0 4  20.5 0 4  21 0 4  21.5 0 4  22 0 4  22.5 0 4  23 0 4  23.5 0 4  24 0 4  24.5 0 4  25 0 4  25.5 0 4  26 0 4  26.5 0 4  27 0 4  27.5 0 4  28 0 4  28.5 0 4  29 0 4  29.5 0 4  30 0 4  30.5 0 4  31 0 4  31.5 0 4  32 0 4  32.5 0 4  33 0 4  33.5 0 4  34 0 4  34.5 0 4  35 0 4  35.5 0 4  36 0 4  36.5 0 4  37 0 4  37.5 0 4  38 0 4  38.5 0 4  39 0 4  39.5 0 4  40 0 4  40.5 0 4  41 0 4  41.5 0 4  42 0 4  42.5 0 4  43 0 4  43.5 0 4  44 0 4  44.5 0 4  45 0 4  45.5 0 4  46 0 4  46.5 0 4  47 0 4  47.5 0 4  48 0 4  48.5 0 4  49 0 4  49.5 0 4  50 1.04967844 3.90746784  50 2.0669806 3.632725  50 3.02052855 3.18424606  50 3.88091111 2.5758636  50 4.62159061 1.82634306  50 5.21972132 0.958802283  49.5 5.65685415 0  49 5.65685415 0  48.5 5.65685415 0  48 5.65685415 0  47.5 5.65685415 0  47 5.65685415 0  46.5 5.65685415 0  46 5.65685415 0  45.5 5.65685415 0  45 5.65685415 0  44.5 5.65685415 0  44 5.65685415 0  43.5 5.65685415 0  43 5.65685415 0  42.5 5.65685415 0  42 5.65685415 0  41.5 5.65685415 0  41 5.65685415 0  40.5 5.65685415 0  40 5.65685415 0  39.5 5.65685415 0  39 5.65685415 0  38.5 5.65685415 0  38 5.65685415 0  37.5 5.65685415 0  37 5.65685415 0  36.5 5.65685415 0  36 5.65685415 0  35.5 5.65685415 0  35 5.65685415 0  34.5 5.65685415 0  34 5.65685415 0  33.5 5.65685415 0  33 5.65685415 0  32.5 5.65685415 0  32 5.65685415 0  31.5 5.65685415 0  31 5.65685415 0  30.5 5.65685415 0  30 5.65685415 0  29.5 5.65685415 0  29 5.65685415 0  28.5 5.65685415 0  28 5.65685415 0  27.5 5.65685415 0  27 5.65685415 0  26.5 5.65685415 0  26 5.65685415 0  25.5 5.65685415 0  25 5.65685415 0  24.5 5.65685415 0  24 5.65685415 0  23.5 5.65685415 0  23 5.65685415 0  22.5 5.65685415 0  22 5.65685415 0  21.5 5.65685415 0  21 5.65685415 0  20.5 5.65685415 0  20 5.65685415 0  19.5 5.65685415 0  19 5.65685415 0  18.5 5.65685415 0  18 5.65685415 0  17.5 5.65685415 0  17 5.65685415 0  16.5 5.65685415 0  16 5.65685415 0  15.5 5.65685415 0  15 5.65685415 0  14.5 5.65685415 0  14 5.65685415 0  13.5 5.65685415 0  13 5.65685415 0  12.5 5.65685415 0  12 5.65685415 0  11.5 5.65685415 0  11 5.65685415 0  10.5 5.65685415 0  10 5.65685415 0  9.5 5.65685415 0  9 5.65685415 0  8.5 5.65685415 0  8 5.65685415 0  7.5 5.65685415 0  7 5.65685415 0  6.5 5.65685415 0  6 5.65685415 0  5.5 5.65685415 0  5 5.65685415 0  4.5 5.65685415 0  4 5.65685415 0  3.5 5.65685415 0  3 5.65685415 0  2.5 5.65685415 0  2 5.65685415 0  1.5 5.65685415 0  1 5.65685415 0  0.5 5.65685415 0  50 4.71404505 0  50 3.77123618 0  50 2.82842708 0  50 1.88561809 0  50 0.942809045 0  49.5 0 0  49 0 0  48.5 0 0  48 0 0  47.5 0 0  47 0 0  46.5 0 0  46 0 0  45.5 0 0  45 0 0  44.5 0 0  44 0 0  43.5 0 0  43 0 0  42.5 0 0  42 0 0  41.5 0 0  41 0 0  40.5 0 0  40 0 0  39.5 0 0  39 0 0  38.5 0 0  38 0 0  37.5 0 0  37 0 0  36.5 0 0  36 0 0  35.5 0 0  35 0 0  34.5 0 0  34 0 0  33.5 0 0  33 0 0  32.5 0 0  32 0 0  31.5 0 0  31 0 0  30.5 0 0  30 0 0  29.5 0 0  29 0 0  28.5 0 0  28 0 0  27.5 0 0  27 0 0  26.5 0 0  26 0 0  25.5 0 0  25 0 0  24.5 0 0  24 0 0  23.5 0 0  23 0 0  22.5 0 0  22 0 0  21.5 0 0  21 0 0  20.5 0 0  20 0 0  19.5 0 0  19 0 0  18.5 0 0  18 0 0  17.5 0 0  17 0 0  16.5 0 0  16 0 0  15.5 0 0  15 0 0  14.5 0 0  14 0 0  13.5 0 0  13 0 0  12.5 0 0  12 0 0  11.5 0 0  11 0 0  10.5 0 0  10 0 0  9.5 0 0  9 0 0  8.5 0 0  8 0 0  7.5 0 0  7 0 0  6.5 0 0  6 0 0  5.5 0 0  5 0 0  4.5 0 0  4 0 0  3.5 0 0  3 0 0  2.5 0 0  2 0 0  1.5 0 0  1 0 0  0.5 0 0  50 0 1  50 0 2  50 0 3  0 2.33524275 0.893602192  0 2.87561393 1.93323028  0 4.2367816 0.876864135  0 2.00050235 2.65534091  0 0.981494486 2.34323239  0 3.78543234 1.61830366  0 3.30545568 0.887000024  0 0.812916458 1.58408713  0 1.71948838 1.71268857  0 1.28267908 0.8650629520000001  0 1.21973121 3.10775328  0.5 5.21972132 0.958802223  0.5 4.62159061 1.82634306  0.5 3.88091111 2.5758636  0.5 3.02052855 3.18424606  0.5 2.0669806 3.632725  0.5 1.04967844 3.90746784  1 5.21972132 0.958802223  1 4.62159061 1.82634306  1 3.88091111 2.5758636  1 3.02052855 3.18424606  1 2.0669806 3.632725  1 1.04967844 3.90746784  1.5 5.21972132 0.958802223  1.5 4.62159061 1.82634306  1.5 3.88091111 2.5758636  1.5 3.02052855 3.18424606  1.5 2.0669806 3.632725  1.5 1.04967844 3.90746784  2 5.21972132 0.958802223  2 4.62159061 1.82634306  2 3.88091111 2.5758636  2 3.02052855 3.18424606  2 2.0669806 3.632725  2 1.04967844 3.90746784  2.5 5.21972132 0.958802223  2.5 4.62159061 1.82634306  2.5 3.88091111 2.5758636  2.5 3.02052855 3.18424606  2.5 2.0669806 3.632725  2.5 1.04967844 3.90746784  3 5.21972132 0.958802223  3 4.62159061 1.82634306  3 3.88091111 2.5758636  3 3.02052855 3.18424606  3 2.0669806 3.632725  3 1.04967844 3.90746784  3.5 5.21972132 0.958802223  3.5 4.62159061 1.82634306  3.5 3.88091111 2.5758636  3.5 3.02052855 3.18424606  3.5 2.0669806 3.632725  3.5 1.04967844 3.90746784  4 5.21972132 0.958802223  4 4.62159061 1.82634306  4 3.88091111 2.5758636  4 3.02052855 3.18424606  4 2.0669806 3.632725  4 1.04967844 3.90746784  4.5 5.21972132 0.958802223  4.5 4.62159061 1.82634306  4.5 3.88091111 2.5758636  4.5 3.02052855 3.18424606  4.5 2.0669806 3.632725  4.5 1.04967844 3.90746784  5 5.21972132 0.958802223  5 4.62159061 1.82634306  5 3.88091111 2.5758636  5 3.02052855 3.18424606  5 2.0669806 3.632725  5 1.04967844 3.90746784  5.5 5.21972132 0.958802223  5.5 4.62159061 1.82634306  5.5 3.88091111 2.5758636  5.5 3.02052855 3.18424606  5.5 2.0669806 3.632725  5.5 1.04967844 3.90746784  6 5.21972132 0.958802223  6 4.62159061 1.82634306  6 3.88091111 2.5758636  6 3.02052855 3.18424606  6 2.0669806 3.632725  6 1.04967844 3.90746784  6.5 5.21972132 0.958802223  6.5 4.62159061 1.82634306  6.5 3.88091111 2.5758636  6.5 3.02052855 3.18424606  6.5 2.0669806 3.632725  6.5 1.04967844 3.90746784  7 5.21972132 0.958802223  7 4.62159061 1.82634306  7 3.88091111 2.5758636  7 3.02052855 3.18424606  7 2.0669806 3.632725  7 1.04967844 3.90746784  7.5 5.21972132 0.958802223  7.5 4.62159061 1.82634306  7.5 3.88091111 2.5758636  7.5 3.02052855 3.18424606  7.5 2.0669806 3.632725  7.5 1.04967844 3.90746784  8 5.21972132 0.958802223  8 4.62159061 1.82634306  8 3.88091111 2.5758636  8 3.02052855 3.18424606  8 2.0669806 3.632725  8 1.04967844 3.90746784  8.5 5.21972132 0.958802223  8.5 4.62159061 1.82634306  8.5 3.88091111 2.5758636  8.5 3.02052855 3.18424606  8.5 2.0669806 3.632725  8.5 1.04967844 3.90746784  9 5.21972132 0.958802223  9 4.62159061 1.82634306  9 3.88091111 2.5758636  9 3.02052855 3.18424606  9 2.0669806 3.632725  9 1.04967844 3.90746784  9.5 5.21972132 0.958802223  9.5 4.62159061 1.82634306  9.5 3.88091111 2.5758636  9.5 3.02052855 3.18424606  9.5 2.0669806 3.632725  9.5 1.04967844 3.90746784  10 5.21972132 0.958802223  10 4.62159061 1.82634306  10 3.88091111 2.5758636  10 3.02052855 3.18424606  10 2.0669806 3.632725  10 1.04967844 3.90746784  10.5 5.21972132 0.958802223  10.5 4.62159061 1.82634306  10.5 3.88091111 2.5758636  10.5 3.02052855 3.18424606  10.5 2.0669806 3.632725  10.5 1.04967844 3.90746784  11 5.21972132 0.958802223  11 4.62159061 1.82634306  11 3.88091111 2.5758636  11 3.02052855 3.18424606  11 2.0669806 3.632725  11 1.04967844 3.90746784  11.5 5.21972132 0.958802223  11.5 4.62159061 1.82634306  11.5 3.88091111 2.5758636  11.5 3.02052855 3.18424606  11.5 2.0669806 3.632725  11.5 1.04967844 3.90746784  12 5.21972132 0.958802223  12 4.62159061 1.82634306  12 3.88091111 2.5758636  12 3.02052855 3.18424606  12 2.0669806 3.632725  12 1.04967844 3.90746784  12.5 5.21972132 0.958802223  12.5 4.62159061 1.82634306  12.5 3.88091111 2.5758636  12.5 3.02052855 3.18424606  12.5 2.0669806 3.632725  12.5 1.04967844 3.90746784  13 5.21972132 0.958802223  13 4.62159061 1.82634306  13 3.88091111 2.5758636  13 3.02052855 3.18424606  13 2.0669806 3.632725  13 1.04967844 3.90746784  13.5 5.21972132 0.958802223  13.5 4.62159061 1.82634306  13.5 3.88091111 2.5758636  13.5 3.02052855 3.18424606  13.5 2.0669806 3.632725  13.5 1.04967844 3.90746784  14 5.21972132 0.958802223  14 4.62159061 1.82634306  14 3.88091111 2.5758636  14 3.02052855 3.18424606  14 2.0669806 3.632725  14 1.04967844 3.90746784  14.5 5.21972132 0.958802223  14.5 4.62159061 1.82634306  14.5 3.88091111 2.5758636  14.5 3.02052855 3.18424606  14.5 2.0669806 3.632725  14.5 1.04967844 3.90746784  15 5.21972132 0.958802223  15 4.62159061 1.82634306  15 3.88091111 2.5758636  15 3.02052855 3.18424606  15 2.0669806 3.632725  15 1.04967844 3.90746784  15.5 5.21972132 0.958802223  15.5 4.62159061 1.82634306  15.5 3.88091111 2.5758636  15.5 3.02052855 3.18424606  15.5 2.0669806 3.632725  15.5 1.04967844 3.90746784  16 5.21972132 0.958802223  16 4.62159061 1.82634306  16 3.88091111 2.5758636  16 3.02052855 3.18424606  16 2.0669806 3.632725  16 1.04967844 3.90746784  16.5 5.21972132 0.958802223  16.5 4.62159061 1.82634306  16.5 3.88091111 2.5758636  16.5 3.02052855 3.18424606  16.5 2.0669806 3.632725  16.5 1.04967844 3.90746784  17 5.21972132 0.958802223  17 4.62159061 1.82634306  17 3.88091111 2.5758636  17 3.02052855 3.18424606  17 2.0669806 3.632725  17 1.04967844 3.90746784  17.5 5.21972132 0.958802223  17.5 4.62159061 1.82634306  17.5 3.88091111 2.5758636  17.5 3.02052855 3.18424606  17.
[...]
<PointData  Vectors="f_261141-0"> 
<DataArray  type="Float64"  Name="f_261141-0"  NumberOfComponents="3" format="ascii">0.0000000000000000e+00 0.0000000000000000e+00 0.0000000000000000e+00  0.0000000000000000e+00 0.0000000000000000e+00 4.3967171380149239e-01  0.0000000000000000e+00 7.4163074797763229e-01 0.0000000000000000e+00  5.6094310993060654e+00 0.0000000000000000e+00 4.0440598395044223e+00  6.4062811610965467e+00 6.3749820568270410e-01 3.8919688125327432e+00  6.2747172487915819e+00 0.0000000000000000e+00 3.7674908955631237e+00  0.0000000000000000e+00 0.0000000000000000e+00 1.3293510003246312e-01  0.0000000000000000e+00 0.0000000000000000e+00 2.3384482131795573e-01  0.0000000000000000e+00 0.0000000000000000e+00 3.1302862472789672e-01  0.0000000000000000e+00 9.4577196261058954e-02 4.4437363523676837e-01  0.0000000000000000e+00 2.1745616059614931e-01 4.4783095519726723e-01  0.0000000000000000e+00 3.4045421374223689e-01 4.0812772877573250e-01  0.0000000000000000e+00 4.5745200287052018e-01 3.4142607843422690e-01  0.0000000000000000e+00 5.8188517149319297e-01 2.5361217213678067e-01  0.0000000000000000e+00 6.8580864923697182e-01 1.3793458143470616e-01  0.0000000000000000e+00 6.1288238537250062e-01 0.0000000000000000e+00  0.0000000000000000e+00 4.7372463945634835e-01 0.0000000000000000e+00  0.0000000000000000e+00 3.3493402680197359e-01 0.0000000000000000e+00  0.0000000000000000e+00 2.1293482764744137e-01 0.0000000000000000e+00  0.0000000000000000e+00 1.0394940035482669e-01 0.0000000000000000e+00  5.8939377497000137e-02 0.0000000000000000e+00 4.4193671043135807e-01  1.1505728216635576e-01 0.0000000000000000e+00 4.4216287180280972e-01  1.7360421908397505e-01 0.0000000000000000e+00 4.4431400335222015e-01  2.3285479441665405e-01 0.0000000000000000e+00 4.4606866787650828e-01  2.9279439498060478e-01 0.0000000000000000e+00 4.4903505247477149e-01  3.5122989399270566e-01 0.0000000000000000e+00 4.5309383203909809e-01  4.1098342198814947e-01 0.0000000000000000e+00 4.6083223323173167e-01  4.6993390490221276e-01 0.0000000000000000e+00 4.6610683216869730e-01  5.2835527975452201e-01 0.0000000000000000e+00 4.7812144242458021e-01  5.8725567523288358e-01 0.0000000000000000e+00 4.8700301052768813e-01  6.4668358701888862e-01 0.0000000000000000e+00 4.9862500053820613e-01  7.0678175960174083e-01 0.0000000000000000e+00 4.9937361077755832e-01  7.6592024044801399e-01 0.0000000000000000e+00 5.0779973787566857e-01  8.2520805510049744e-01 0.0000000000000000e+00 5.1967814963447034e-01  8.8548982723521130e-01 0.0000000000000000e+00 5.3179257189631679e-01  9.4307122367655272e-01 0.0000000000000000e+00 5.4081999452065899e-01  1.0010383881025271e+00 0.0000000000000000e+00 5.5075134287674143e-01  1.0584377179889985e+00 0.0000000000000000e+00 5.6681605451859685e-01  1.1194802455057400e+00 0.0000000000000000e+00 5.7914488246750018e-01  1.1794126680225097e+00 0.0000000000000000e+00 5.9045808696445345e-01  1.2381642800323065e+00 0.0000000000000000e+00 6.0528728064828141e-01  1.2992797466429917e+00 0.0000000000000000e+00 6.2273212314204984e-01  1.3590742156215512e+00 0.0000000000000000e+00 6.3814599258465021e-01  1.4174726570541949e+00 0.0000000000000000e+00 6.5289324338986976e-01  1.4758292241929842e+00 0.0000000000000000e+00 6.7086963055020243e-01  1.5337690194805913e+00 0.0000000000000000e+00 6.8957601773726707e-01  1.5913908496110130e+00 0.0000000000000000e+00 7.1098892771853184e-01  1.6513837801511932e+00 0.0000000000000000e+00 7.2980092031469634e-01  1.7088218670205473e+00 0.0000000000000000e+00 7.4821309184408147e-01  1.7670948226077550e+00 0.0000000000000000e+00 7.7425718936424137e-01  1.8289028006713097e+00 0.0000000000000000e+00 7.8968763334301184e-01  1.8902892733203420e+00 0.0000000000000000e+00 8.1462993676567030e-01  1.9470234168989973e+00 0.0000000000000000e+00 8.4423073664563186e-01  2.0062619637380608e+00 0.0000000000000000e+00 8.6592345226657508e-01  2.0633442589710027e+00 0.0000000000000000e+00 8.9281151873120923e-01  2.1216734745319377e+00 0.0000000000000000e+00 9.1744343310866949e-01  2.1775361876115946e+00 0.0000000000000000e+00 9.4543678213149429e-01  2.2353139973162732e+00 0.0000000000000000e+00 9.7080175822219794e-01  2.2937931542768415e+00 0.0000000000000000e+00 9.9922222454814325e-01  2.3514106008031779e+00 0.0000000000000000e+00 1.0280708535339271e+00  2.4111005171379221e+00 0.0000000000000000e+00 1.0585564276270489e+00  2.4690328938384529e+00 0.0000000000000000e+00 1.0857650567541950e+00  2.5264191275261649e+00 0.0000000000000000e+00 1.1185005056749548e+00  2.5847789267533883e+00 0.0000000000000000e+00 1.1518550341207634e+00  2.6437198429380064e+00 0.0000000000000000e+00 1.1846769841607199e+00  2.7032571035558313e+00 0.0000000000000000e+00 1.2191821617077436e+00  2.7611798315003933e+00 0.0000000000000000e+00 1.2513836907586324e+00  2.8178381230401723e+00 0.0000000000000000e+00 1.2853478044056361e+00  2.8758522190349693e+00 0.0000000000000000e+00 1.3221356723646591e+00  2.9332947312628961e+00 0.0000000000000000e+00 1.3584200879437887e+00  2.9923823915837415e+00 0.0000000000000000e+00 1.3979599670879836e+00  3.0494804653776604e+00 0.0000000000000000e+00 1.4353920584843505e+00  3.1060392723226422e+00 0.0000000000000000e+00 1.4748500500304849e+00  3.1629991599431730e+00 0.0000000000000000e+00 1.5178530184596724e+00  3.2198790965015029e+00 0.0000000000000000e+00 1.5566849754251431e+00  3.2759286989371774e+00 0.0000000000000000e+00 1.5958430251688214e+00  3.3355909631358709e+00 0.0000000000000000e+00 1.6390935952036005e+00  3.3936733736858047e+00 0.0000000000000000e+00 1.6835966191434610e+00  3.4514114237257076e+00 0.0000000000000000e+00 1.7277746181755647e+00  3.5060580407027353e+00 0.0000000000000000e+00 1.7747642389560701e+00  3.5646909083922442e+00 0.0000000000000000e+00 1.8201973041673627e+00  3.6227610891252300e+00 0.0000000000000000e+00 1.8660351202746852e+00  3.6794962789229966e+00 0.0000000000000000e+00 1.9102538141059411e+00  3.7381074627901292e+00 0.0000000000000000e+00 1.9582153240892752e+00  3.7961970076416085e+00 0.0000000000000000e+00 2.0038347080203036e+00  3.8518466184636035e+00 0.0000000000000000e+00 2.0504519977593891e+00  3.9097625031657559e+00 0.0000000000000000e+00 2.0998526638470807e+00  3.9666768332031999e+00 0.0000000000000000e+00 2.1506891048317942e+00  4.0216452521107975e+00 0.0000000000000000e+00 2.2011975649096209e+00  4.0785692032157339e+00 0.0000000000000000e+00 2.2541554305246816e+00  4.1358132755656678e+00 0.0000000000000000e+00 2.3058298791415770e+00  4.1921455882612273e+00 0.0000000000000000e+00 2.3607463876819215e+00  4.2455522684780105e+00 0.0000000000000000e+00 2.4176436316165462e+00  4.3022043541759816e+00 0.0000000000000000e+00 2.4735808954546465e+00  4.3600162579950474e+00 0.0000000000000000e+00 2.5269749687131369e+00  4.4154735338927713e+00 0.0000000000000000e+00 2.5865997306258062e+00  4.4709148804383423e+00 0.0000000000000000e+00 2.6427593708279358e+00  4.5264333201205762e+00 0.0000000000000000e+00 2.7011735911748667e+00  4.5818595370303381e+00 0.0000000000000000e+00 2.7612879313725309e+00  4.6381292642396588e+00 0.0000000000000000e+00 2.8221131735587028e+00  4.6945339637679808e+00 0.0000000000000000e+00 2.8818219322479455e+00  4.7486271857514186e+00 0.0000000000000000e+00 2.9397023536264597e+00  4.8045327268385858e+00 0.0000000000000000e+00 3.0039082354902349e+00  4.8607319776802678e+00 0.0000000000000000e+00 3.0661042005182444e+00  4.9158028982300523e+00 0.0000000000000000e+00 3.1246112999401303e+00  4.9710120761468213e+00 0.0000000000000000e+00 3.1895013282391944e+00  5.0265841658641399e+00 0.0000000000000000e+00 3.2503605705863543e+00  5.0798888378209295e+00 0.0000000000000000e+00 3.3141519994597424e+00  5.1358745722807511e+00 0.0000000000000000e+00 3.3817293856978381e+00  5.1900215914210674e+00 0.0000000000000000e+00 3.4471891157170371e+00  5.2442147693871872e+00 0.0000000000000000e+00 3.5097916981926809e+00  5.2991353231234157e+00 0.0000000000000000e+00 3.5717330720892586e+00  5.3531058461877610e+00 0.0000000000000000e+00 3.6310762586518135e+00  5.4065453615469456e+00 0.0000000000000000e+00 3.6856209929208972e+00  5.4549772394755527e+00 0.0000000000000000e+00 3.7380009178789684e+00  5.4964980288165854e+00 0.0000000000000000e+00 3.7878433642507288e+00  5.5315126007786439e+00 0.0000000000000000e+00 3.8422315622358503e+00  5.5615599756897334e+00 0.0000000000000000e+00 3.9015030295296937e+00  5.5852033809672443e+00 0.0000000000000000e+00 3.9659937499636304e+00  5.6414359603393640e+00 5.0168059016073518e-02 4.0385928107801607e+00  5.7033007765627657e+00 1.1532758905326597e-01 4.0489481653395689e+00  5.7896350424848277e+00 1.9225351176812874e-01 4.0611357151579801e+00  5.9044013848614849e+00 2.8824880654828922e-01 4.0617558217444856e+00  6.0579308151683451e+00 4.0042046071212367e-01 4.0489579181270141e+00  6.2437881367813084e+00 5.2870768375832000e-01 3.9887628194563285e+00  6.3491705871564417e+00 6.5422361657181660e-01 3.8101290128229941e+00  6.2895418428390046e+00 6.7337292278813643e-01 3.7238176444219793e+00  6.2300741501790107e+00 6.8985177696996547e-01 3.6356255237169548e+00  6.1675593960222743e+00 7.0397662016893570e-01 3.5495037632351489e+00  6.1033349818976355e+00 7.1583421151442872e-01 3.4642243834620667e+00  6.0376687660168518e+00 7.2655910995125195e-01 3.3787223695367872e+00  5.9700916279313878e+00 7.3081312788550767e-01 3.2961391361321613e+00  5.9007945277031579e+00 7.3291832671407420e-01 3.2168643616656993e+00  5.8339466754058389e+00 7.3507925644954208e-01 3.1362081343062367e+00  5.7654414025065401e+00 7.3475236378417996e-01 3.0606981626370922e+00  5.6990387113929470e+00 7.3683717077548183e-01 2.9842477738606297e+00  5.6334780490812841e+00 7.4010348564426154e-01 2.9098299121666718e+00  5.5684286946735337e+00 7.4090856487260115e-01 2.8407681802134732e+00  5.5037067112015441e+00 7.4106137581819298e-01 2.7721916157702955e+00  5.4415925693837179e+00 7.3968537149657354e-01 2.7008422199156135e+00  5.3769657275031699e+00 7.3690582166477969e-01 2.6318886784106557e+00  5.3143530464539044e+00 7.3582193582735089e-01 2.5705781244905768e+00  5.2512339947860491e+00 7.3779430442460892e-01 2.5095643640625642e+00  5.1892139173629968e+00 7.4061259190270445e-01 2.4455888155161007e+00  5.1270057057759226e+00 7.4004739115214091e-01 2.3818408358753160e+00  5.0641222727534192e+00 7.3722314033742786e-01 2.3189364052499859e+00  4.9994387521143535e+00 7.3606993146599853e-01 2.2569318095292266e+00  4.9362803845429921e+00 7.3458511517596270e-01 2.1944445349308128e+00  4.8727486540333915e+00 7.3204086380248368e-01 2.1343339928912255e+00  4.8110998799746998e+00 7.3207775301705758e-01 2.0722920892425445e+00  4.7478702967255977e+00 7.2630670561786048e-01 2.0161536694184115e+00  4.6842156568658320e+00 7.2698417383627689e-01 1.9603545737170813e+00  4.6217713960646831e+00 7.2957118310084401e-01 1.9024351316045711e+00  4.5598049718123228e+00 7.2831000379818356e-01 1.8499899220231435e+00  4.4985013983284796e+00 7.3032710759826824e-01 1.7957852139719850e+00  4.4352498249381656e+00 7.2881095844275134e-01 1.7442742981739963e+00  4.3724733165282643e+00 7.2569496928932897e-01 1.6929403076426901e+00  4.3090627885351367e+00 7.2521769562392213e-01 1.6427316717387992e+00  4.2463360379640829e+00 7.2660980878538228e-01 1.5923767345540139e+00  4.1836012783796850e+00 7.2639788950677864e-01 1.5437932622262966e+00  4.1214490036981335e+00 7.2784110622309472e-01 1.4941127638323077e+00  4.0592782848979967e+00 7.2917909747159115e-01 1.4441011551615330e+00  3.9954814528362110e+00 7.2976476506271648e-01 1.3970211535827535e+00  3.9315172812708763e+00 7.2897403624144108e-01 1.3516229272426146e+00  3.8688086863176507e+00 7.3016507077710824e-01 1.3057731558236327e+00  3.8054842235051507e+00 7.3000976957561059e-01 1.2598660854255963e+00  3.7415354221679427e+00 7.2888707197840497e-01 1.2172334923583366e+00  3.6763180404156648e+00 7.2643485633924632e-01 1.1754097736343259e+00  3.6136620624953575e+00 7.2647216451203467e-01 1.1288669589734952e+00  3.5511837456809272e+00 7.2642509796015986e-01 1.0857259608968159e+00  3.4879801615781725e+00 7.2791296557447527e-01 1.0462544129996199e+00  3.4247637388926817e+00 7.3048030458124102e-01 1.0062397413793180e+00  3.3607705892815640e+00 7.2931488170275083e-01 9.6904028730250080e-01  3.2963093889195503e+00 7.2753525742468794e-01 9.3038509156234195e-01  3.2316782539265962e+00 7.2696775342991049e-01 8.9136574867656537e-01  3.1666856362467719e+00 7.2614341702164575e-01 8.5590590077882756e-01  3.1027716189383092e+00 7.3026308422023278e-01 8.1631588828040424e-01  3.0393288773427489e+00 7.2778804277279219e-01 7.8389891110840049e-01  2.9756373700112508e+00 7.2988384342732737e-01 7.4349939999125836e-01  2.9122246135635104e+00 7.2471738487246384e-01 7.0695772090458597e-01  2.8465453918608761e+00 7.2459634241976256e-01 6.7447805179909104e-01  2.7812670605636880e+00 7.2691452220740138e-01 6.4352626825498260e-01  2.7177606616917966e+00 7.2792367179155459e-01 6.1063583508129715e-01  2.6532372754247917e+00 7.2750550479042020e-01 5.8091702757905850e-01  2.5897019161560175e+00 7.2793319642530208e-01 5.4966897326434005e-01  2.5246593449907082e+00 7.2721721731477973e-01 5.2187701964340705e-01  2.4603905717456254e+00 7.2779609767438058e-01 4.9370191619352566e-01  2.3949280257259269e+00 7.3000901820410424e-01 4.6911204258525235e-01  2.3321629775046322e+00 7.2984346917521714e-01 4.4234134056082147e-01  2.2676723254997491e+00 7.3069350216733497e-01 4.1938422093539934e-01  2.2018704583452444e+00 7.2933661491470159e-01 3.9849143098045336e-01  2.1372019964505884e+00 7.3140180378519604e-01 3.7271692720792887e-01  2.0739028073652488e+00 7.3280544204080467e-01 3.4725640195724150e-01  2.0098992612654354e+00 7.3085351365665607e-01 3.2542830834730396e-01  1.9453314771441876e+00 7.3168352577818274e-01 3.0140197731169699e-01  1.8799780775181170e+00 7.2944085739763975e-01 2.8057780362731161e-01  1.8150655419377340e+00 7.3142135938333175e-01 2.5735648563173713e-01  1.7508300059110629e+00 7.3041087310035913e-01 2.3556964232873123e-01  1.6847721175649639e+00 7.2940001276290767e-01 2.1566330500010514e-01  1.6197749559809931e+00 7.2842651116118096e-01 1.9546193378731000e-01  1.5538180416475120e+00 7.2963296848208214e-01 1.7783836622324919e-01  1.4893619200565589e+00 7.3093961655446849e-01 1.6159321492677353e-01  1.4261816331115156e+00 7.3193892619487366e-01 1.4583688171524944e-01  1.3615698530977407e+00 7.3340339415570455e-01 1.3090442328139265e-01  1.2959117433374394e+00 7.3044300415003682e-01 1.1895537332000326e-01  1.2312395883960787e+00 7.3049819722034914e-01 1.0359549860221376e-01  1.1662790861115091e+00 7.3032980119853419e-01 9.2076355255676076e-02  1.1019870494400272e+00 7.2881664115591238e-01 8.0895605511620852e-02  1.0375260405156475e+00 7.3282262577241120e-01 6.6148368712459479e-02  9.7391754380970186e-01 7.3017331266226282e-01 5.2945237201607862e-02  9.0915230879334530e-01 7.3110931515896371e-01 4.1672733360386398e-02  8.4270735237045868e-01 7.2779884127110939e-01 3.4747991165728763e-02  7.7807361913065765e-01 7.2877293062444959e-01 2.3593588806929917e-02  7.1303214281905636e-01 7.2802897128687571e-01 1.7410905440388452e-02  6.4767242052951290e-01 7.2991652278985708e-01 1.1506811477762099e-02  5.8355080004599968e-01 7.3214548957760239e-01 4.9714662296684977e-03  5.1915233231778024e-01 7.3357388012591651e-01 9.3339533706979770e-04  4.5473944133294675e-01 7.3371983963997600e-01 -2.1537902216068948e-03  3.8833767526222140e-01 7.3702131371555635e-01 -1.0241688964238080e-03  3.2325897476042548e-01 7.3939036910307043e-01 -9.6695753987952819e-04  2.5883756389043755e-01 7.4040582954964473e-01 1.0136444705222530e-04  1.9340629804099954e-01 7.3794081842636039e-01 1.9165235857388765e-03  1.2768081149023452e-01 7.3864703344175175e-01 0.0000000000000000e+00  6.1977875195381754e-02 7.3788058593516748e-01 0.0000000000000000e+00  6.3778363183149818e+00 5.0804361307678658e-01 3.8553781793483393e+00  6.3524035226119357e+00 3.9723943434217940e-01 3.8221018204791779e+00  6.3235553659598276e+00 2.8467372754444337e-01 3.7965115656946495e+00  6.3106414079906559e+00 1.9091061415010840e-01 3.7906146130836356e+00  6.2888029109121648e+00 9.1056217744220236e-02 3.7741935212382494e+00  6.2165059961512066e+00 0.0000000000000000e+00 3.6768127766120555e+00  6.1614971965032161e+00 0.0000000000000000e+00 3.6001690120020049e+00  6.1060160352967427e+00 0.0000000000000000e+00 3.5193846661948052e+00  6.0494520629348125e+00 0.0000000000000000e+00 3.4442091891932138e+00  5.9912287011615346e+00 0.0000000000000000e+00 3.3738413766294784e+00  5.9339473009790051e+00 0.0000000000000000e+00 3.3050707756582591e+00  5.8752252510268859e+00 0.0000000000000000e+00 3.2382027538560827e+00  5.8195294213606719e+00 0.0000000000000000e+00 3.1707669889303687e+00  5.7631761034284565e+00 0.0000000000000000e+00 3.1013589240732515e+00  5.7024898237472836e+00 0.0000000000000000e+00 3.0428258864022473e+00  5.6454398903839502e+00 0.0000000000000000e+00 2.9783249245284917e+00  5.5872635803118289e+00 0.0000000000000000e+00 2.9108891241142318e+00  5.5291949317508706e+00 0.0000000000000000e+00 2.8441085567899851e+00  5.4688615848412567e+00 0.0000000000000000e+00 2.7824564024834482e+00  5.4086807928366873e+00 0.0000000000000000e+00 2.7230027454727543e+00  5.3488420609935883e+00 0.0000000000000000e+00 2.6619267328542291e+00  5.2896392325181880e+00 0.0000000000000000e+00 2.5978118560221204e+00  5.2305520081246790e+00 0.0000000000000000e+00 2.5341020080377898e+00  5.1695715302627958e+00 0.0000000000000000e+00 2.4788322535944500e+00  5.1105858219078666e+00 0.0000000000000000e+00 2.4183249379064193e+00  5.0494213220276682e+00 0.0000000000000000e+00 2.3579929377402649e+00  4.9864353088163700e+00 0.0000000000000000e+00 2.3026835752505344e+00  4.9251237583357907e+00 0.0000000000000000e+00 2.2412787058093788e+00  4.8632807002866079e+00 0.0000000000000000e+00 2.1866691033095429e+00  4.8018678139735131e+00 0.0000000000000000e+00 2.1279637174219022e+00  4.7408924951906277e+00 0.0000000000000000e+00 2.0692773193675831e+00  4.6797647849157178e+00 0.0000000000000000e+00 2.0113748648594720e+00  4.6158764247694704e+00 0.0000000000000000e+00 1.9615424140144537e+00  4.5524180507707177e+00 0.0000000000000000e+00 1.9066543631756849e+00  4.4894007306998107e+00 0.0000000000000000e+00 1.8553252596610172e+00  4.4256595052455561e+00 0.0000000000000000e+00 1.8050865058699823e+00  4.3647753601011408e+00 0.0000000000000000e+00 1.7513652816656875e+00  4.3046872226179413e+00 0.0000000000000000e+00 1.6947627407306678e+00  4.2420306969204775e+00 0.0000000000000000e+00 1.6461185683148252e+00  4.1793178990062287e+00 0.0000000000000000e+00 1.5944034842789889e+00  4.1156231116149335e+00 0.0000000000000000e+00 1.5494701232029275e+00  4.0527136368486394e+00 0.0000000000000000e+00 1.4999258721512145e+00  3.9913462855575830e+00 0.0000000000000000e+00 1.4521033227669686e+00  3.9276492133573413e+00 0.0000000000000000e+00 1.4077870815361575e+00  3.8637736236406242e+00 0.0000000000000000e+00 1.3580976521600632e+00  3.7992387467959667e+00 0.0000000000000000e+00 1.3164335994936880e+00  3.7372123148236471e+00 0.0000000000000000e+00 1.2675513157688734e+00  3.6728459306331094e+00 0.0000000000000000e+00 1.2232148082943965e+00  3.6079604923026118e+00 0.0000000000000000e+00 1.1844567752720137e+00  3.5441843486282130e+00 0.0000000000000000e+00 1.1427274577763902e+00  3.4806335593863080e+00 0.0000000000000000e+00 1.0993336553475797e+00  3.4153485771605565e+00 0.0000000000000000e+00 1.0630317335273112e+00  3.3540076756491830e+00 0.0000000000000000e+00 1.0206100358830725e+00  3.2894719008617219e+00 0.0000000000000000e+00 9.8500657438755834e-01  3.2258826776395177e+00 0.0000000000000000e+00 9.4494321019462346e-01  3.1620946537323289e+00 0.0000000000000000e+00 9.1016385433415647e-01  3.0989538392404374e+00 0.0000000000000000e+00 8.7202549885140679e-01  3.0352829867276307e+00 0.0000000000000000e+00 8.3942293012375957e-01  2.9734285233200635e+00 0.0000000000000000e+00 7.9915531953314822e-01  2.9100881454797101e+00 0.0000000000000000e+00 7.6515748278744444e-0