<?xml version="1.0"?>
<VTKFile type="UnstructuredGrid"  version="0.1"  >
<UnstructuredGrid>
<Piece  NumberOfPoints="3069" NumberOfCells="12882">
<Points>
<DataArray  type="Float64"  NumberOfComponents="3"  format="ascii">0 0 0  0 0 4  0 5.65685415 0  50 0 4  50 5.65685415 0  50 0 0  0 0 1  0 0 2  0 0 3  0 1.04967844 3.90746784  0 2.0669806 3.632725  0 3.02052855 3.18424606  0 3.88091111 2.5758636  0 4.62159061 1.82634306  0 5.21972132 0.958802283  0 4.71404505 0  0 3.77123618 0  0 2.82842708 0  0 1.88561809 0  0 0.942809045 0  0.5 0 4  1 0 4  1.5 0 4  2 0 4  2.5 0 4  3 0 4  3.5 0 4  4 0 4  4.5 0 4  5 0 4  5.5 0 4  6 0 4  6.5 0 4  7 0 4  7.5 0 4  8 0 4  8.5 0 4  9 0 4  9.5 0 4  10 0 4  10.5 0 4  11 0 4  11.5 0 4  12 0 4  12.5 0 4  13 0 4  13.5 0 4  14 0 4  14.5 0 4  15 0 4  15.5 0 4  16 0 4  16.5 0 4  17 0 4  17.5 0 4  18 0 4  18.5 0 4  19 0 4  19.5 0 4  20 0 4  20.5 0 4  21 0 4  21.5 0 4  22 0 4  22.5 0 4  23 0 4  23.5 0 4  24 0 4  24.5 0 4  25 0 4  25.5 0 4  26 0 4  26.5 0 4  27 0 4  27.5 0 4  28 0 4  28.5 0 4  29 0 4  29.5 0 4  30 0 4  30.5 0 4  31 0 4  31.5 0 4  32 0 4  32.5 0 4  33 0 4  33.5 0 4  34 0 4  34.5 0 4  35 0 4  35.5 0 4  36 0 4  36.5 0 4  37 0 4  37.5 0 4  38 0 4  38.5 0 4  39 0 4  39.5 0 4  40 0 4  40.5 0 4  41 0 4  41.5 0 4  42 0 4  42.5 0 4  43 0 4  43.5 0 4  44 0 4  44.5 0 4  45 0 4  45.5 0 4  46 0 4  46.5 0 4  47 0 4  47.5 0 4  48 0 4  48.5 0 4  49 0 4  49.5 0 4  50 1.04967844 3.90746784  50 2.0669806 3.632725  50 3.02052855 3.18424606  50 3.88091111 2.5758636  50 4.62159061 1.82634306  50 5.21972132 0.958802283  49.5 5.65685415 0  49 5.65685415 0  48.5 5.65685415 0  48 5.65685415 0  47.5 5.65685415 0  47 5.65685415 0  46.5 5.65685415 0  46 5.65685415 0  45.5 5.65685415 0  45 5.65685415 0  44.5 5.65685415 0  44 5.65685415 0  43.5 5.65685415 0  43 5.65685415 0  42.5 5.65685415 0  42 5.65685415 0  41.5 5.65685415 0  41 5.65685415 0  40.5 5.65685415 0  40 5.65685415 0  39.5 5.65685415 0  39 5.65685415 0  38.5 5.65685415 0  38 5.65685415 0  37.5 5.65685415 0  37 5.65685415 0  36.5 5.65685415 0  36 5.65685415 0  35.5 5.65685415 0  35 5.65685415 0  34.5 5.65685415 0  34 5.65685415 0  33.5 5.65685415 0  33 5.65685415 0  32.5 5.65685415 0  32 5.65685415 0  31.5 5.65685415 0  31 5.65685415 0  30.5 5.65685415 0  30 5.65685415 0  29.5 5.65685415 0  29 5.65685415 0  28.5 5.65685415 0  28 5.65685415 0  27.5 5.65685415 0  27 5.65685415 0  26.5 5.65685415 0  26 5.65685415 0  25.5 5.65685415 0  25 5.65685415 0  24.5 5.65685415 0  24 5.65685415 0  23.5 5.65685415 0  23 5.65685415 0  22.5 5.65685415 0  22 5.65685415 0  21.5 5.65685415 0  21 5.65685415 0  20.5 5.65685415 0  20 5.65685415 0  19.5 5.65685415 0  19 5.65685415 0  18.5 5.65685415 0  18 5.65685415 0  17.5 5.65685415 0  17 5.65685415 0  16.5 5.65685415 0  16 5.65685415 0  15.5 5.65685415 0  15 5.65685415 0  14.5 5.65685415 0  14 5.65685415 0  13.5 5.65685415 0  13 5.65685415 0  12.5 5.65685415 0  12 5.65685415 0  11.5 5.65685415 0  11 5.65685415 0  10.5 5.65685415 0  10 5.65685415 0  9.5 5.65685415 0  9 5.65685415 0  8.5 5.65685415 0  8 5.65685415 0  7.5 5.65685415 0  7 5.65685415 0  6.5 5.65685415 0  6 5.65685415 0  5.5 5.65685415 0  5 5.65685415 0  4.5 5.65685415 0  4 5.65685415 0  3.5 5.65685415 0  3 5.65685415 0  2.5 5.65685415 0  2 5.65685415 0  1.5 5.65685415 0  1 5.65685415 0  0.5 5.65685415 0  50 4.71404505 0  50 3.77123618 0  50 2.82842708 0  50 1.88561809 0  50 0.942809045 0  49.5 0 0  49 0 0  48.5 0 0  48 0 0  47.5 0 0  47 0 0  46.5 0 0  46 0 0  45.5 0 0  45 0 0  44.5 0 0  44 0 0  43.5 0 0  43 0 0  42.5 0 0  42 0 0  41.5 0 0  41 0 0  40.5 0 0  40 0 0  39.5 0 0  39 0 0  38.5 0 0  38 0 0  37.5 0 0  37 0 0  36.5 0 0  36 0 0  35.5 0 0  35 0 0  34.5 0 0  34 0 0  33.5 0 0  33 0 0  32.5 0 0  32 0 0  31.5 0 0  31 0 0  30.5 0 0  30 0 0  29.5 0 0  29 0 0  28.5 0 0  28 0 0  27.5 0 0  27 0 0  26.5 0 0  26 0 0  25.5 0 0  25 0 0  24.5 0 0  24 0 0  23.5 0 0  23 0 0  22.5 0 0  22 0 0  21.5 0 0  21 0 0  20.5 0 0  20 0 0  19.5 0 0  19 0 0  18.5 0 0  18 0 0  17.5 0 0  17 0 0  16.5 0 0  16 0 0  15.5 0 0  15 0 0  14.5 0 0  14 0 0  13.5 0 0  13 0 0  12.5 0 0  12 0 0  11.5 0 0  11 0 0  10.5 0 0  10 0 0  9.5 0 0  9 0 0  8.5 0 0  8 0 0  7.5 0 0  7 0 0  6.5 0 0  6 0 0  5.5 0 0  5 0 0  4.5 0 0  4 0 0  3.5 0 0  3 0 0  2.5 0 0  2 0 0  1.5 0 0  1 0 0  0.5 0 0  50 0 1  50 0 2  50 0 3  0 2.33524275 0.893602192  0 2.87561393 1.93323028  0 4.2367816 0.876864135  0 2.00050235 2.65534091  0 0.981494486 2.34323239  0 3.78543234 1.61830366  0 3.30545568 0.887000024  0 0.812916458 1.58408713  0 1.71948838 1.71268857  0 1.28267908 0.8650629520000001  0 1.21973121 3.10775328  0.5 5.21972132 0.958802223  0.5 4.62159061 1.82634306  0.5 3.88091111 2.5758636  0.5 3.02052855 3.18424606  0.5 2.0669806 3.632725  0.5 1.04967844 3.90746784  1 5.21972132 0.958802223  1 4.62159061 1.82634306  1 3.88091111 2.5758636  1 3.02052855 3.18424606  1 2.0669806 3.632725  1 1.04967844 3.90746784  1.5 5.21972132 0.958802223  1.5 4.62159061 1.82634306  1.5 3.88091111 2.5758636  1.5 3.02052855 3.18424606  1.5 2.0669806 3.632725  1.5 1.04967844 3.90746784  2 5.21972132 0.958802223  2 4.62159061 1.82634306  2 3.88091111 2.5758636  2 3.02052855 3.18424606  2 2.0669806 3.632725  2 1.04967844 3.90746784  2.5 5.21972132 0.958802223  2.5 4.62159061 1.82634306  2.5 3.88091111 2.5758636  2.5 3.02052855 3.18424606  2.5 2.0669806 3.632725  2.5 1.04967844 3.90746784  3 5.21972132 0.958802223  3 4.62159061 1.82634306  3 3.88091111 2.5758636  3 3.02052855 3.18424606  3 2.0669806 3.632725  3 1.04967844 3.90746784  3.5 5.21972132 0.958802223  3.5 4.62159061 1.82634306  3.5 3.88091111 2.5758636  3.5 3.02052855 3.18424606  3.5 2.0669806 3.632725  3.5 1.04967844 3.90746784  4 5.21972132 0.958802223  4 4.62159061 1.82634306  4 3.88091111 2.5758636  4 3.02052855 3.18424606  4 2.0669806 3.632725  4 1.04967844 3.90746784  4.5 5.21972132 0.958802223  4.5 4.62159061 1.82634306  4.5 3.88091111 2.5758636  4.5 3.02052855 3.18424606  4.5 2.0669806 3.632725  4.5 1.04967844 3.90746784  5 5.21972132 0.958802223  5 4.62159061 1.82634306  5 3.88091111 2.5758636  5 3.02052855 3.18424606  5 2.0669806 3.632725  5 1.04967844 3.90746784  5.5 5.21972132 0.958802223  5.5 4.62159061 1.82634306  5.5 3.88091111 2.5758636  5.5 3.02052855 3.18424606  5.5 2.0669806 3.632725  5.5 1.04967844 3.90746784  6 5.21972132 0.958802223  6 4.62159061 1.82634306  6 3.88091111 2.5758636  6 3.02052855 3.18424606  6 2.0669806 3.632725  6 1.04967844 3.90746784  6.5 5.21972132 0.958802223  6.5 4.62159061 1.82634306  6.5 3.88091111 2.5758636  6.5 3.02052855 3.18424606  6.5 2.0669806 3.632725  6.5 1.04967844 3.90746784  7 5.21972132 0.958802223  7 4.62159061 1.82634306  7 3.88091111 2.5758636  7 3.02052855 3.18424606  7 2.0669806 3.632725  7 1.04967844 3.90746784  7.5 5.21972132 0.958802223  7.5 4.62159061 1.82634306  7.5 3.88091111 2.5758636  7.5 3.02052855 3.18424606  7.5 2.0669806 3.632725  7.5 1.04967844 3.90746784  8 5.21972132 0.958802223  8 4.62159061 1.82634306  8 3.88091111 2.5758636  8 3.02052855 3.18424606  8 2.0669806 3.632725  8 1.04967844 3.90746784  8.5 5.21972132 0.958802223  8.5 4.62159061 1.82634306  8.5 3.88091111 2.5758636  8.5 3.02052855 3.18424606  8.5 2.0669806 3.632725  8.5 1.04967844 3.90746784  9 5.21972132 0.958802223  9 4.62159061 1.82634306  9 3.88091111 2.5758636  9 3.02052855 3.18424606  9 2.0669806 3.632725  9 1.04967844 3.90746784  9.5 5.21972132 0.958802223  9.5 4.62159061 1.82634306  9.5 3.88091111 2.5758636  9.5 3.02052855 3.18424606  9.5 2.0669806 3.632725  9.5 1.04967844 3.90746784  10 5.21972132 0.958802223  10 4.62159061 1.82634306  10 3.88091111 2.5758636  10 3.02052855 3.18424606  10 2.0669806 3.632725  10 1.04967844 3.90746784  10.5 5.21972132 0.958802223  10.5 4.62159061 1.82634306  10.5 3.88091111 2.5758636  10.5 3.02052855 3.18424606  10.5 2.0669806 3.632725  10.5 1.04967844 3.90746784  11 5.21972132 0.958802223  11 4.62159061 1.82634306  11 3.88091111 2.5758636  11 3.02052855 3.18424606  11 2.0669806 3.632725  11 1.04967844 3.90746784  11.5 5.21972132 0.958802223  11.5 4.62159061 1.82634306  11.5 3.88091111 2.5758636  11.5 3.02052855 3.18424606  11.5 2.0669806 3.632725  11.5 1.04967844 3.90746784  12 5.21972132 0.958802223  12 4.62159061 1.82634306  12 3.88091111 2.5758636  12 3.02052855 3.18424606  12 2.0669806 3.632725  12 1.04967844 3.90746784  12.5 5.21972132 0.958802223  12.5 4.62159061 1.82634306  12.5 3.88091111 2.5758636  12.5 3.02052855 3.18424606  12.5 2.0669806 3.632725  12.5 1.04967844 3.90746784  13 5.21972132 0.958802223  13 4.62159061 1.82634306  13 3.88091111 2.5758636  13 3.02052855 3.18424606  13 2.0669806 3.632725  13 1.04967844 3.90746784  13.5 5.21972132 0.958802223  13.5 4.62159061 1.82634306  13.5 3.88091111 2.5758636  13.5 3.02052855 3.18424606  13.5 2.0669806 3.632725  13.5 1.04967844 3.90746784  14 5.21972132 0.958802223  14 4.62159061 1.82634306  14 3.88091111 2.5758636  14 3.02052855 3.18424606  14 2.0669806 3.632725  14 1.04967844 3.90746784  14.5 5.21972132 0.958802223  14.5 4.62159061 1.82634306  14.5 3.88091111 2.5758636  14.5 3.02052855 3.18424606  14.5 2.0669806 3.632725  14.5 1.04967844 3.90746784  15 5.21972132 0.958802223  15 4.62159061 1.82634306  15 3.88091111 2.5758636  15 3.02052855 3.18424606  15 2.0669806 3.632725  15 1.04967844 3.90746784  15.5 5.21972132 0.958802223  15.5 4.62159061 1.82634306  15.5 3.88091111 2.5758636  15.5 3.02052855 3.18424606  15.5 2.0669806 3.632725  15.5 1.04967844 3.90746784  16 5.21972132 0.958802223  16 4.62159061 1.82634306  16 3.88091111 2.5758636  16 3.02052855 3.18424606  16 2.0669806 3.632725  16 1.04967844 3.90746784  16.5 5.21972132 0.958802223  16.5 4.62159061 1.82634306  16.5 3.88091111 2.5758636  16.5 3.02052855 3.18424606  16.5 2.0669806 3.632725  16.5 1.04967844 3.90746784  17 5.21972132 0.958802223  17 4.62159061 1.82634306  17 3.88091111 2.5758636  17 3.02052855 3.18424606  17 2.0669806 3.632725  17 1.04967844 3.90746784  17.5 5.21972132 0.958802223  17.5 4.62159061 1.82634306  17.5 3.88091111 2.5758636  17.5 3.02052855 3.18424606  17.
[...]
<PointData  Vectors="f_261141-0"> 
<DataArray  type="Float64"  Name="f_261141-0"  NumberOfComponents="3" format="ascii">0.0000000000000000e+00 0.0000000000000000e+00 0.0000000000000000e+00  0.0000000000000000e+00 0.0000000000000000e+00 8.0242324837350643e-01  0.0000000000000000e+00 1.0753343493762151e+00 0.0000000000000000e+00  1.0079688694488986e+01 0.0000000000000000e+00 -3.3545089928900385e-01  9.9865231627400224e+00 1.0473611117913328e+00 -1.0574890770066692e+00  9.9286374779041857e+00 0.0000000000000000e+00 -1.0237574726385195e+00  0.0000000000000000e+00 0.0000000000000000e+00 1.5598317732323799e-01  0.0000000000000000e+00 0.0000000000000000e+00 3.9371805813547595e-01  0.0000000000000000e+00 0.0000000000000000e+00 6.5247909863777587e-01  0.0000000000000000e+00 2.3052673313451258e-01 7.6717514478032423e-01  0.0000000000000000e+00 4.1247025451270297e-01 6.9567210395481871e-01  0.0000000000000000e+00 6.0588584638968368e-01 6.3111885715977201e-01  0.0000000000000000e+00 7.9254167485041815e-01 5.1517606912275526e-01  0.0000000000000000e+00 9.4445278966711443e-01 3.2876255098544493e-01  0.0000000000000000e+00 1.0426966506297024e+00 1.7100574444451425e-01  0.0000000000000000e+00 9.2428251615555412e-01 0.0000000000000000e+00  0.0000000000000000e+00 7.5947412876946030e-01 0.0000000000000000e+00  0.0000000000000000e+00 5.6855141410705290e-01 0.0000000000000000e+00  0.0000000000000000e+00 3.7184226834802153e-01 0.0000000000000000e+00  0.0000000000000000e+00 1.8700589709035007e-01 0.0000000000000000e+00  1.0043177999362819e-01 0.0000000000000000e+00 8.0601246758173439e-01  2.0094037944855783e-01 0.0000000000000000e+00 8.0408467815304885e-01  3.0287451745351035e-01 0.0000000000000000e+00 8.0301074797678818e-01  4.0591786241367644e-01 0.0000000000000000e+00 8.0410246311797307e-01  5.0177177925610417e-01 0.0000000000000000e+00 8.1273573897754547e-01  6.1086847554664869e-01 0.0000000000000000e+00 8.0544115866440813e-01  7.0928253146279097e-01 0.0000000000000000e+00 8.0440770639577153e-01  8.1444895807878126e-01 0.0000000000000000e+00 7.9528376963400149e-01  9.1810805749961999e-01 0.0000000000000000e+00 7.8878404969416527e-01  1.0173585962791782e+00 0.0000000000000000e+00 7.8765766664832348e-01  1.1173883689297990e+00 0.0000000000000000e+00 7.8567698550297504e-01  1.2174527474065469e+00 0.0000000000000000e+00 7.9525798851602447e-01  1.3193876337853754e+00 0.0000000000000000e+00 7.9825271625243099e-01  1.4329428494873511e+00 0.0000000000000000e+00 7.7994531470258088e-01  1.5348251743807977e+00 0.0000000000000000e+00 7.7498407472597453e-01  1.6419671400331011e+00 0.0000000000000000e+00 7.6852924147258139e-01  1.7440000893822545e+00 0.0000000000000000e+00 7.6615631930657380e-01  1.8465955463016446e+00 0.0000000000000000e+00 7.5754141365943140e-01  1.9468553688630157e+00 0.0000000000000000e+00 7.5720742770637617e-01  2.0450399516009647e+00 0.0000000000000000e+00 7.6144611046784694e-01  2.1444873905612964e+00 0.0000000000000000e+00 7.6876984995897324e-01  2.2478977263109026e+00 0.0000000000000000e+00 7.5541299568767151e-01  2.3510818041160939e+00 0.0000000000000000e+00 7.5367249253808211e-01  2.4547231768996602e+00 0.0000000000000000e+00 7.4503630855259173e-01  2.5550055480998481e+00 0.0000000000000000e+00 7.4705532375977390e-01  2.6591471402040399e+00 0.0000000000000000e+00 7.3693438115844478e-01  2.7624213302400249e+00 0.0000000000000000e+00 7.2780505123400463e-01  2.8610962872848149e+00 0.0000000000000000e+00 7.3020251627264321e-01  2.9632614699442796e+00 0.0000000000000000e+00 7.2362424487203802e-01  3.0649420441767665e+00 0.0000000000000000e+00 7.0790689147198493e-01  3.1588920913170919e+00 0.0000000000000000e+00 7.1824973809750248e-01  3.2600505967132563e+00 0.0000000000000000e+00 7.0619872526704286e-01  3.3616939297663331e+00 0.0000000000000000e+00 6.9408362900568621e-01  3.4667665622819390e+00 0.0000000000000000e+00 6.7600489803634234e-01  3.5720003361356953e+00 0.0000000000000000e+00 6.6502900785238073e-01  3.6757119487681935e+00 0.0000000000000000e+00 6.6113779873050826e-01  3.7789704578599572e+00 0.0000000000000000e+00 6.5524277550242938e-01  3.8791163040033450e+00 0.0000000000000000e+00 6.5432657815670769e-01  3.9842331281144099e+00 0.0000000000000000e+00 6.4162864924154417e-01  4.0839382115771405e+00 0.0000000000000000e+00 6.4167809391326647e-01  4.1822279623967455e+00 0.0000000000000000e+00 6.3890096486985426e-01  4.2860845833608900e+00 0.0000000000000000e+00 6.2923997030834433e-01  4.3837948548869772e+00 0.0000000000000000e+00 6.2029857049642689e-01  4.4914825641602434e+00 0.0000000000000000e+00 5.9217886696052324e-01  4.5886695334480567e+00 0.0000000000000000e+00 5.8743634876798534e-01  4.6883843798952780e+00 0.0000000000000000e+00 5.8010628118506136e-01  4.7894257726905529e+00 0.0000000000000000e+00 5.8331875000977973e-01  4.8926981705287318e+00 0.0000000000000000e+00 5.7953485703584695e-01  4.9950150470748715e+00 0.0000000000000000e+00 5.7170383834257577e-01  5.0983889263313413e+00 0.0000000000000000e+00 5.6123875443027837e-01  5.2023215239881857e+00 0.0000000000000000e+00 5.4581135122725122e-01  5.3004480362075581e+00 0.0000000000000000e+00 5.4978296326026976e-01  5.4063942036888371e+00 0.0000000000000000e+00 5.3184496855750751e-01  5.5047883647554672e+00 0.0000000000000000e+00 5.3262434008460258e-01  5.6091269700699211e+00 0.0000000000000000e+00 5.1541390495354644e-01  5.7171737313288746e+00 0.0000000000000000e+00 5.0188365191830631e-01  5.8183109376045312e+00 0.0000000000000000e+00 4.8861168541173067e-01  5.9183022143129689e+00 0.0000000000000000e+00 4.8312500341861297e-01  6.0210848778217327e+00 0.0000000000000000e+00 4.7629649734183532e-01  6.1251436488064313e+00 0.0000000000000000e+00 4.5622757139944747e-01  6.2261740713096678e+00 0.0000000000000000e+00 4.3043153303613030e-01  6.3248092492022110e+00 0.0000000000000000e+00 4.3025073017840643e-01  6.4275178984014696e+00 0.0000000000000000e+00 4.1221092424218814e-01  6.5306844769815289e+00 0.0000000000000000e+00 3.9567769588262125e-01  6.6285694128635466e+00 0.0000000000000000e+00 3.9831452347331137e-01  6.7344829553099759e+00 0.0000000000000000e+00 3.9214821034373737e-01  6.8425390660267391e+00 0.0000000000000000e+00 3.7813428963489337e-01  6.9411178750804154e+00 0.0000000000000000e+00 3.6544622518905712e-01  7.0422783070646489e+00 0.0000000000000000e+00 3.5333184127303369e-01  7.1416106353486404e+00 0.0000000000000000e+00 3.3619730382749330e-01  7.2425384815112421e+00 0.0000000000000000e+00 3.2528934962460571e-01  7.3435171219639779e+00 0.0000000000000000e+00 3.1445044697309787e-01  7.4489374460656235e+00 0.0000000000000000e+00 2.8454384463087862e-01  7.5512560248125311e+00 0.0000000000000000e+00 2.7011588359853211e-01  7.6584552702829916e+00 0.0000000000000000e+00 2.5359673992619153e-01  7.7591269550057529e+00 0.0000000000000000e+00 2.4115694542371718e-01  7.8632101776004664e+00 0.0000000000000000e+00 2.2667920988010970e-01  7.9621126188424736e+00 0.0000000000000000e+00 2.1026885629243769e-01  8.0674012677602853e+00 0.0000000000000000e+00 1.8415589685303518e-01  8.1665683317583007e+00 0.0000000000000000e+00 1.6841060537004707e-01  8.2683796114599009e+00 0.0000000000000000e+00 1.5538333988758060e-01  8.3777332900587975e+00 0.0000000000000000e+00 1.3293238813406433e-01  8.4836628765622208e+00 0.0000000000000000e+00 1.1319204947067539e-01  8.5837403145468691e+00 0.0000000000000000e+00 1.0209128593631402e-01  8.6900480381169078e+00 0.0000000000000000e+00 7.5653289525366429e-02  8.7895766200805472e+00 0.0000000000000000e+00 6.0931651499340780e-02  8.8950015143032406e+00 0.0000000000000000e+00 3.9874960981911803e-02  8.9986500791685025e+00 0.0000000000000000e+00 1.0575632446454134e-02  9.1031441413405840e+00 0.0000000000000000e+00 -2.8002474715331287e-02  9.2023812476282263e+00 0.0000000000000000e+00 -5.4163681403329243e-02  9.3049512626482471e+00 0.0000000000000000e+00 -9.0814195533167621e-02  9.4039061369237036e+00 0.0000000000000000e+00 -1.2286691041669191e-01  9.4995354937024707e+00 0.0000000000000000e+00 -1.5286233585603379e-01  9.5906270881823765e+00 0.0000000000000000e+00 -1.8499809377626664e-01  9.6780539208127188e+00 0.0000000000000000e+00 -2.1913804050153876e-01  9.7636518900875355e+00 0.0000000000000000e+00 -2.4841455174205124e-01  9.8472921277831595e+00 0.0000000000000000e+00 -2.7052358497488377e-01  9.9291882478269446e+00 0.0000000000000000e+00 -2.9888671026671176e-01  1.0006982451994512e+01 0.0000000000000000e+00 -3.2430870608387952e-01  1.0078568279488394e+01 1.6339467871941188e-01 -3.4988699093398545e-01  1.0093883204590835e+01 3.2960024894608397e-01 -3.8255454666755923e-01  1.0097531439312331e+01 5.0704399638436792e-01 -4.3812713124669705e-01  1.0100207905898912e+01 6.9381386177954607e-01 -5.1610968759645148e-01  1.0113053293028091e+01 8.8351122323669673e-01 -6.7712175913280703e-01  1.0047790486574954e+01 9.8786658407663774e-01 -8.7873119685971335e-01  9.8984045689421336e+00 1.0508249373110257e+00 -1.0308335028846265e+00  9.8061655398108893e+00 1.0552871541417790e+00 -1.0043102978633427e+00  9.7134461159368382e+00 1.0598081451802881e+00 -9.7674387786816530e-01  9.6162047191497724e+00 1.0600915501254005e+00 -9.4298458494062287e-01  9.5233391705035366e+00 1.0625360690294479e+00 -9.1942104215547971e-01  9.4295177343863070e+00 1.0720016309831024e+00 -9.0372842562062417e-01  9.3340283614537416e+00 1.0689191050813938e+00 -8.8543700644091428e-01  9.2339758044911253e+00 1.0722253367334837e+00 -8.6177995078528868e-01  9.1351733183925763e+00 1.0783126107189518e+00 -8.3937870054647612e-01  9.0337896873205956e+00 1.0806995345173729e+00 -8.1459295375846086e-01  8.9325665678443009e+00 1.0832805073512037e+00 -7.9298004082115381e-01  8.8318678590026600e+00 1.0932922418210023e+00 -7.7514696842214592e-01  8.7321650785982552e+00 1.0949067724459411e+00 -7.4883985431991340e-01  8.6314783813489964e+00 1.0924539666706763e+00 -7.2828920513828033e-01  8.5321724011374958e+00 1.0957302168840881e+00 -7.2278660308666620e-01  8.4254592371328076e+00 1.0876360509964993e+00 -7.0384017151136435e-01  8.3309628933589011e+00 1.0910619311464937e+00 -6.7437092297426438e-01  8.2327188377547138e+00 1.1029253296951604e+00 -6.4865232286023533e-01  8.1367189981746826e+00 1.1086099014397803e+00 -6.2881549543101900e-01  8.0384405529409673e+00 1.1125494164705063e+00 -6.0485642609013746e-01  7.9389382098024797e+00 1.1176538790967840e+00 -5.7945906614949061e-01  7.8375971080156557e+00 1.1134036408134036e+00 -5.5077188622993345e-01  7.7359763317256522e+00 1.1203738731598116e+00 -5.3558468671260206e-01  7.6354763891433386e+00 1.1057633671592717e+00 -5.1877634068511880e-01  7.5373347180511319e+00 1.1069764005846712e+00 -5.1126293561798286e-01  7.4379976579186229e+00 1.1052077497068531e+00 -4.9938040523669497e-01  7.3361958864646999e+00 1.1046278767229860e+00 -4.8747185914217334e-01  7.2354223617724136e+00 1.1041456499408158e+00 -4.7927379642397361e-01  7.1358732432936218e+00 1.1051019453366124e+00 -4.6915334105529510e-01  7.0362533111500465e+00 1.1014284573011632e+00 -4.5383174714986285e-01  6.9347316779224890e+00 1.1003739211387968e+00 -4.4171069008907504e-01  6.8340624914745618e+00 1.1045951229982605e+00 -4.3274961785235699e-01  6.7329502309489566e+00 1.0979996198601312e+00 -4.2317974366101357e-01  6.6312597561197073e+00 1.0921025404062068e+00 -4.1544227963312058e-01  6.5310021143009518e+00 1.0901154159032558e+00 -4.0480551623695260e-01  6.4308515846459429e+00 1.0876962991985641e+00 -3.9520980435943298e-01  6.3300142169770401e+00 1.0898013708495815e+00 -3.8589923410281668e-01  6.2273189226374441e+00 1.0930269364809491e+00 -3.7408105336929642e-01  6.1256533930181023e+00 1.0968763889253899e+00 -3.6837514188073228e-01  6.0255917665307930e+00 1.0864795361154960e+00 -3.6058137692752001e-01  5.9239613615129647e+00 1.0824972321172905e+00 -3.5309354673940069e-01  5.8240369134341448e+00 1.0862406517931980e+00 -3.4596399700015551e-01  5.7255830996816384e+00 1.0765212004192144e+00 -3.2916224743621575e-01  5.6258273080727790e+00 1.0784294860892696e+00 -3.1536023433616178e-01  5.5277592862459173e+00 1.0861372880783065e+00 -3.0636764439857589e-01  5.4294488598792796e+00 1.0849838620831700e+00 -2.9010954807745565e-01  5.3327043084327297e+00 1.0885157176826279e+00 -2.7770097800872462e-01  5.2329139976237151e+00 1.0930125634594274e+00 -2.6737902655493051e-01  5.1314100847086399e+00 1.0882352000107534e+00 -2.4971651407725950e-01  5.0280694991624255e+00 1.0950914441083877e+00 -2.3422586604981990e-01  4.9265352806512528e+00 1.0957056678194792e+00 -2.2664699853836662e-01  4.8241911958103785e+00 1.1025205642800999e+00 -2.2594094696009440e-01  4.7228905866491004e+00 1.0958607369850748e+00 -2.1626822418117722e-01  4.6194158113970412e+00 1.0980220565972496e+00 -2.1578855392470492e-01  4.5213884244815210e+00 1.0971893133027908e+00 -2.1051292124462864e-01  4.4191232251128518e+00 1.0963636278081166e+00 -1.9664376676177700e-01  4.3171837737156498e+00 1.0927913166546188e+00 -1.7798877288240270e-01  4.2171151125881279e+00 1.1016236698473660e+00 -1.7133131739154817e-01  4.1178086935846236e+00 1.1017948908109394e+00 -1.6375005359152903e-01  4.0197885533339761e+00 1.1024036397227508e+00 -1.5910150628483261e-01  3.9169087321295688e+00 1.1083328665191052e+00 -1.5642699968354312e-01  3.8159984183826126e+00 1.0985769270472909e+00 -1.5081448106818018e-01  3.7120683149388980e+00 1.0970776260177548e+00 -1.4263585487585506e-01  3.6125546230540833e+00 1.1015780375541271e+00 -1.4410891345849383e-01  3.5112339131238839e+00 1.0945306369767578e+00 -1.3351029526726099e-01  3.4092856257615134e+00 1.0799967040522471e+00 -1.1908957736648576e-01  3.3102340133202928e+00 1.0846167967573239e+00 -1.2310665305655359e-01  3.2098956814154707e+00 1.0827737931925729e+00 -1.2261500909762302e-01  3.1116815346290174e+00 1.0805287340610845e+00 -1.1780718711758441e-01  3.0132341718446538e+00 1.0823540295771179e+00 -1.1124971376855425e-01  2.9119174915023458e+00 1.0840891262701111e+00 -9.9631211410003750e-02  2.8101452918571201e+00 1.0875559831078783e+00 -9.1001224259316144e-02  2.7101374158452569e+00 1.0933738380312186e+00 -8.7579453033289539e-02  2.6088749399205877e+00 1.0912302744368552e+00 -7.8268807308236002e-02  2.5076531471023493e+00 1.0927711056597231e+00 -7.1429413218767418e-02  2.4071781910073775e+00 1.0872982103408853e+00 -6.1784839614322760e-02  2.3073192777303575e+00 1.0913400883437345e+00 -5.7784793330294078e-02  2.2099743609345830e+00 1.0966200897055951e+00 -5.3832063987244334e-02  2.1072248179336479e+00 1.0987006317579122e+00 -4.8476231036973023e-02  2.0045112206866760e+00 1.0903993135129160e+00 -3.3663155227009522e-02  1.9052554400398103e+00 1.1006213307712229e+00 -3.1922756412512278e-02  1.8032244462898057e+00 1.1022442193543462e+00 -2.5458187684555385e-02  1.7035068242960820e+00 1.0895764378764694e+00 -1.4520120235666716e-02  1.6032622368704272e+00 1.0930034390300656e+00 -1.4851614247714171e-02  1.5056093681171854e+00 1.0936981262386785e+00 -1.5747826676626862e-02  1.4068880414604108e+00 1.0948447083850719e+00 -1.0284924533885102e-02  1.3062709873420328e+00 1.0915360449380407e+00 1.8300215439174107e-03  1.2050834655448148e+00 1.1016116718904054e+00 9.1311939180238383e-04  1.1038387601731234e+00 1.1028094800000672e+00 1.2587132426122589e-03  1.0024479011176943e+00 1.1044455984771195e+00 4.7947270074211925e-03  9.0117368194513114e-01 1.1002675956229913e+00 3.0302155450287324e-03  8.0126752703225457e-01 1.0989844338406072e+00 4.1808091895829940e-03  6.9961249120570890e-01 1.1024098417931649e+00 3.6124336601192062e-03  5.9604351974099057e-01 1.0988123782067687e+00 1.2578916220459193e-02  4.9701079273783116e-01 1.0944351527820089e+00 1.4641491382523559e-02  3.9694553113475373e-01 1.0987143292397115e+00 6.8602105349320919e-03  2.9513776150409599e-01 1.0863323464587165e+00 4.9585434319154966e-03  1.9605598883932682e-01 1.0806068914523277e+00 0.0000000000000000e+00  9.6598799832213048e-02 1.0728858478631538e+00 0.0000000000000000e+00  9.9793007807156702e+00 8.7156022853195425e-01 -1.0441474424247086e+00  9.9686280638614502e+00 6.9044809674010132e-01 -1.0391174749800738e+00  9.9593407842935324e+00 5.2001391547217335e-01 -1.0377703623983741e+00  9.9525995257066455e+00 3.4108831515609539e-01 -1.0251173222855645e+00  9.9357080256981583e+00 1.5854119212678017e-01 -1.0325266891139713e+00  9.8452010984609881e+00 0.0000000000000000e+00 -1.0112066990896733e+00  9.7631928629594942e+00 0.0000000000000000e+00 -9.9336349831839033e-01  9.6762688452908137e+00 0.0000000000000000e+00 -9.7799377444347646e-01  9.5867377171906600e+00 0.0000000000000000e+00 -9.6241410606191313e-01  9.4942902494447861e+00 0.0000000000000000e+00 -9.3851798539303821e-01  9.3968581512614744e+00 0.0000000000000000e+00 -9.1937388576879009e-01  9.3022063160073625e+00 0.0000000000000000e+00 -9.0247522683915948e-01  9.2001755211877736e+00 0.0000000000000000e+00 -8.7877214032803019e-01  9.1006267912353511e+00 0.0000000000000000e+00 -8.5296490973539929e-01  9.0028419303516198e+00 0.0000000000000000e+00 -8.4271092651653590e-01  8.9035524268563826e+00 0.0000000000000000e+00 -8.1640763782876014e-01  8.8088215869715025e+00 0.0000000000000000e+00 -7.9509826833616926e-01  8.7129204705109604e+00 0.0000000000000000e+00 -7.6333893059416968e-01  8.6100370413390959e+00 0.0000000000000000e+00 -7.3316150926406065e-01  8.5179250681159449e+00 0.0000000000000000e+00 -7.2537824025313913e-01  8.4228623934699183e+00 0.0000000000000000e+00 -7.1263980880013822e-01  8.3255986110373712e+00 0.0000000000000000e+00 -6.8730550088611841e-01  8.2272011129337290e+00 0.0000000000000000e+00 -6.6618930291135159e-01  8.1280080030409252e+00 0.0000000000000000e+00 -6.6448171279216206e-01  8.0299271852844782e+00 0.0000000000000000e+00 -6.4388781772913428e-01  7.9296077624457046e+00 0.0000000000000000e+00 -6.2380825370094495e-01  7.8315714861993913e+00 0.0000000000000000e+00 -6.0083654588709734e-01  7.7326779137347046e+00 0.0000000000000000e+00 -5.7977837550562705e-01  7.6324563725168613e+00 0.0000000000000000e+00 -5.7040923517718911e-01  7.5344822358929795e+00 0.0000000000000000e+00 -5.4958825688033519e-01  7.4337120598754431e+00 0.0000000000000000e+00 -5.2576667140446987e-01  7.3309977223781280e+00 0.0000000000000000e+00 -5.1125242505448720e-01  7.2298098481796051e+00 0.0000000000000000e+00 -5.0343156458319904e-01  7.1302548552918221e+00 0.0000000000000000e+00 -4.9467877636090579e-01  7.0285153457244602e+00 0.0000000000000000e+00 -4.8063093044463306e-01  6.9336673537882714e+00 0.0000000000000000e+00 -4.7229946114949412e-01  6.8364629311992520e+00 0.0000000000000000e+00 -4.5944986513101371e-01  6.7364592027641690e+00 0.0000000000000000e+00 -4.3396825051650983e-01  6.6341056996127827e+00 0.0000000000000000e+00 -4.2636042870420976e-01  6.5295683114866803e+00 0.0000000000000000e+00 -4.1314883719204470e-01  6.4301208500158396e+00 0.0000000000000000e+00 -4.0763627139260311e-01  6.3290972850106941e+00 0.0000000000000000e+00 -3.9471557805834762e-01  6.2243751960875651e+00 0.0000000000000000e+00 -3.7571077260880825e-01  6.1233335512910481e+00 0.0000000000000000e+00 -3.6113537566983600e-01  6.0265252713715558e+00 0.0000000000000000e+00 -3.3964754688858306e-01  5.9299914829313467e+00 0.0000000000000000e+00 -3.3386949116045272e-01  5.8335451059938723e+00 0.0000000000000000e+00 -3.1694040821684749e-01  5.7311654008180222e+00 0.0000000000000000e+00 -3.0335921658548559e-01  5.6376963004382592e+00 0.0000000000000000e+00 -3.0833097028405582e-01  5.5389142665131459e+00 0.0000000000000000e+00 -3.0227770946457094e-01  5.4358683168099899e+00 0.0000000000000000e+00 -2.8062780696448347e-01  5.3338865149805699e+00 0.0000000000000000e+00 -2.7547836326695191e-01  5.2344648869798034e+00 0.0000000000000000e+00 -2.6510822664107897e-01  5.1263731235206222e+00 0.0000000000000000e+00 -2.5714905066429078e-01  5.0276529037785318e+00 0.0000000000000000e+00 -2.5114311397382805e-01  4.9282397495683892e+00 0.0000000000000000e+00 -2.5719961548110370e-01  4.8263962610422215e+00 0.0000000000000000e+00 -2.4033773310982368e-01  4.7272079234521440e+00 0.0000000000000000e+00 -