<?xml version="1.0"?>
<VTKFile type="UnstructuredGrid"  version="0.1"  >
<UnstructuredGrid>
<Piece  NumberOfPoints="3069" NumberOfCells="12882">
<Points>
<DataArray  type="Float64"  NumberOfComponents="3"  format="ascii">0 0 0  0 0 4  0 5.65685415 0  50 0 4  50 5.65685415 0  50 0 0  0 0 1  0 0 2  0 0 3  0 1.04967844 3.90746784  0 2.0669806 3.632725  0 3.02052855 3.18424606  0 3.88091111 2.5758636  0 4.62159061 1.82634306  0 5.21972132 0.958802283  0 4.71404505 0  0 3.77123618 0  0 2.82842708 0  0 1.88561809 0  0 0.942809045 0  0.5 0 4  1 0 4  1.5 0 4  2 0 4  2.5 0 4  3 0 4  3.5 0 4  4 0 4  4.5 0 4  5 0 4  5.5 0 4  6 0 4  6.5 0 4  7 0 4  7.5 0 4  8 0 4  8.5 0 4  9 0 4  9.5 0 4  10 0 4  10.5 0 4  11 0 4  11.5 0 4  12 0 4  12.5 0 4  13 0 4  13.5 0 4  14 0 4  14.5 0 4  15 0 4  15.5 0 4  16 0 4  16.5 0 4  17 0 4  17.5 0 4  18 0 4  18.5 0 4  19 0 4  19.5 0 4  20 0 4  20.5 0 4  21 0 4  21.5 0 4  22 0 4  22.5 0 4  23 0 4  23.5 0 4  24 0 4  24.5 0 4  25 0 4  25.5 0 4  26 0 4  26.5 0 4  27 0 4  27.5 0 4  28 0 4  28.5 0 4  29 0 4  29.5 0 4  30 0 4  30.5 0 4  31 0 4  31.5 0 4  32 0 4  32.5 0 4  33 0 4  33.5 0 4  34 0 4  34.5 0 4  35 0 4  35.5 0 4  36 0 4  36.5 0 4  37 0 4  37.5 0 4  38 0 4  38.5 0 4  39 0 4  39.5 0 4  40 0 4  40.5 0 4  41 0 4  41.5 0 4  42 0 4  42.5 0 4  43 0 4  43.5 0 4  44 0 4  44.5 0 4  45 0 4  45.5 0 4  46 0 4  46.5 0 4  47 0 4  47.5 0 4  48 0 4  48.5 0 4  49 0 4  49.5 0 4  50 1.04967844 3.90746784  50 2.0669806 3.632725  50 3.02052855 3.18424606  50 3.88091111 2.5758636  50 4.62159061 1.82634306  50 5.21972132 0.958802283  49.5 5.65685415 0  49 5.65685415 0  48.5 5.65685415 0  48 5.65685415 0  47.5 5.65685415 0  47 5.65685415 0  46.5 5.65685415 0  46 5.65685415 0  45.5 5.65685415 0  45 5.65685415 0  44.5 5.65685415 0  44 5.65685415 0  43.5 5.65685415 0  43 5.65685415 0  42.5 5.65685415 0  42 5.65685415 0  41.5 5.65685415 0  41 5.65685415 0  40.5 5.65685415 0  40 5.65685415 0  39.5 5.65685415 0  39 5.65685415 0  38.5 5.65685415 0  38 5.65685415 0  37.5 5.65685415 0  37 5.65685415 0  36.5 5.65685415 0  36 5.65685415 0  35.5 5.65685415 0  35 5.65685415 0  34.5 5.65685415 0  34 5.65685415 0  33.5 5.65685415 0  33 5.65685415 0  32.5 5.65685415 0  32 5.65685415 0  31.5 5.65685415 0  31 5.65685415 0  30.5 5.65685415 0  30 5.65685415 0  29.5 5.65685415 0  29 5.65685415 0  28.5 5.65685415 0  28 5.65685415 0  27.5 5.65685415 0  27 5.65685415 0  26.5 5.65685415 0  26 5.65685415 0  25.5 5.65685415 0  25 5.65685415 0  24.5 5.65685415 0  24 5.65685415 0  23.5 5.65685415 0  23 5.65685415 0  22.5 5.65685415 0  22 5.65685415 0  21.5 5.65685415 0  21 5.65685415 0  20.5 5.65685415 0  20 5.65685415 0  19.5 5.65685415 0  19 5.65685415 0  18.5 5.65685415 0  18 5.65685415 0  17.5 5.65685415 0  17 5.65685415 0  16.5 5.65685415 0  16 5.65685415 0  15.5 5.65685415 0  15 5.65685415 0  14.5 5.65685415 0  14 5.65685415 0  13.5 5.65685415 0  13 5.65685415 0  12.5 5.65685415 0  12 5.65685415 0  11.5 5.65685415 0  11 5.65685415 0  10.5 5.65685415 0  10 5.65685415 0  9.5 5.65685415 0  9 5.65685415 0  8.5 5.65685415 0  8 5.65685415 0  7.5 5.65685415 0  7 5.65685415 0  6.5 5.65685415 0  6 5.65685415 0  5.5 5.65685415 0  5 5.65685415 0  4.5 5.65685415 0  4 5.65685415 0  3.5 5.65685415 0  3 5.65685415 0  2.5 5.65685415 0  2 5.65685415 0  1.5 5.65685415 0  1 5.65685415 0  0.5 5.65685415 0  50 4.71404505 0  50 3.77123618 0  50 2.82842708 0  50 1.88561809 0  50 0.942809045 0  49.5 0 0  49 0 0  48.5 0 0  48 0 0  47.5 0 0  47 0 0  46.5 0 0  46 0 0  45.5 0 0  45 0 0  44.5 0 0  44 0 0  43.5 0 0  43 0 0  42.5 0 0  42 0 0  41.5 0 0  41 0 0  40.5 0 0  40 0 0  39.5 0 0  39 0 0  38.5 0 0  38 0 0  37.5 0 0  37 0 0  36.5 0 0  36 0 0  35.5 0 0  35 0 0  34.5 0 0  34 0 0  33.5 0 0  33 0 0  32.5 0 0  32 0 0  31.5 0 0  31 0 0  30.5 0 0  30 0 0  29.5 0 0  29 0 0  28.5 0 0  28 0 0  27.5 0 0  27 0 0  26.5 0 0  26 0 0  25.5 0 0  25 0 0  24.5 0 0  24 0 0  23.5 0 0  23 0 0  22.5 0 0  22 0 0  21.5 0 0  21 0 0  20.5 0 0  20 0 0  19.5 0 0  19 0 0  18.5 0 0  18 0 0  17.5 0 0  17 0 0  16.5 0 0  16 0 0  15.5 0 0  15 0 0  14.5 0 0  14 0 0  13.5 0 0  13 0 0  12.5 0 0  12 0 0  11.5 0 0  11 0 0  10.5 0 0  10 0 0  9.5 0 0  9 0 0  8.5 0 0  8 0 0  7.5 0 0  7 0 0  6.5 0 0  6 0 0  5.5 0 0  5 0 0  4.5 0 0  4 0 0  3.5 0 0  3 0 0  2.5 0 0  2 0 0  1.5 0 0  1 0 0  0.5 0 0  50 0 1  50 0 2  50 0 3  0 2.33524275 0.893602192  0 2.87561393 1.93323028  0 4.2367816 0.876864135  0 2.00050235 2.65534091  0 0.981494486 2.34323239  0 3.78543234 1.61830366  0 3.30545568 0.887000024  0 0.812916458 1.58408713  0 1.71948838 1.71268857  0 1.28267908 0.8650629520000001  0 1.21973121 3.10775328  0.5 5.21972132 0.958802223  0.5 4.62159061 1.82634306  0.5 3.88091111 2.5758636  0.5 3.02052855 3.18424606  0.5 2.0669806 3.632725  0.5 1.04967844 3.90746784  1 5.21972132 0.958802223  1 4.62159061 1.82634306  1 3.88091111 2.5758636  1 3.02052855 3.18424606  1 2.0669806 3.632725  1 1.04967844 3.90746784  1.5 5.21972132 0.958802223  1.5 4.62159061 1.82634306  1.5 3.88091111 2.5758636  1.5 3.02052855 3.18424606  1.5 2.0669806 3.632725  1.5 1.04967844 3.90746784  2 5.21972132 0.958802223  2 4.62159061 1.82634306  2 3.88091111 2.5758636  2 3.02052855 3.18424606  2 2.0669806 3.632725  2 1.04967844 3.90746784  2.5 5.21972132 0.958802223  2.5 4.62159061 1.82634306  2.5 3.88091111 2.5758636  2.5 3.02052855 3.18424606  2.5 2.0669806 3.632725  2.5 1.04967844 3.90746784  3 5.21972132 0.958802223  3 4.62159061 1.82634306  3 3.88091111 2.5758636  3 3.02052855 3.18424606  3 2.0669806 3.632725  3 1.04967844 3.90746784  3.5 5.21972132 0.958802223  3.5 4.62159061 1.82634306  3.5 3.88091111 2.5758636  3.5 3.02052855 3.18424606  3.5 2.0669806 3.632725  3.5 1.04967844 3.90746784  4 5.21972132 0.958802223  4 4.62159061 1.82634306  4 3.88091111 2.5758636  4 3.02052855 3.18424606  4 2.0669806 3.632725  4 1.04967844 3.90746784  4.5 5.21972132 0.958802223  4.5 4.62159061 1.82634306  4.5 3.88091111 2.5758636  4.5 3.02052855 3.18424606  4.5 2.0669806 3.632725  4.5 1.04967844 3.90746784  5 5.21972132 0.958802223  5 4.62159061 1.82634306  5 3.88091111 2.5758636  5 3.02052855 3.18424606  5 2.0669806 3.632725  5 1.04967844 3.90746784  5.5 5.21972132 0.958802223  5.5 4.62159061 1.82634306  5.5 3.88091111 2.5758636  5.5 3.02052855 3.18424606  5.5 2.0669806 3.632725  5.5 1.04967844 3.90746784  6 5.21972132 0.958802223  6 4.62159061 1.82634306  6 3.88091111 2.5758636  6 3.02052855 3.18424606  6 2.0669806 3.632725  6 1.04967844 3.90746784  6.5 5.21972132 0.958802223  6.5 4.62159061 1.82634306  6.5 3.88091111 2.5758636  6.5 3.02052855 3.18424606  6.5 2.0669806 3.632725  6.5 1.04967844 3.90746784  7 5.21972132 0.958802223  7 4.62159061 1.82634306  7 3.88091111 2.5758636  7 3.02052855 3.18424606  7 2.0669806 3.632725  7 1.04967844 3.90746784  7.5 5.21972132 0.958802223  7.5 4.62159061 1.82634306  7.5 3.88091111 2.5758636  7.5 3.02052855 3.18424606  7.5 2.0669806 3.632725  7.5 1.04967844 3.90746784  8 5.21972132 0.958802223  8 4.62159061 1.82634306  8 3.88091111 2.5758636  8 3.02052855 3.18424606  8 2.0669806 3.632725  8 1.04967844 3.90746784  8.5 5.21972132 0.958802223  8.5 4.62159061 1.82634306  8.5 3.88091111 2.5758636  8.5 3.02052855 3.18424606  8.5 2.0669806 3.632725  8.5 1.04967844 3.90746784  9 5.21972132 0.958802223  9 4.62159061 1.82634306  9 3.88091111 2.5758636  9 3.02052855 3.18424606  9 2.0669806 3.632725  9 1.04967844 3.90746784  9.5 5.21972132 0.958802223  9.5 4.62159061 1.82634306  9.5 3.88091111 2.5758636  9.5 3.02052855 3.18424606  9.5 2.0669806 3.632725  9.5 1.04967844 3.90746784  10 5.21972132 0.958802223  10 4.62159061 1.82634306  10 3.88091111 2.5758636  10 3.02052855 3.18424606  10 2.0669806 3.632725  10 1.04967844 3.90746784  10.5 5.21972132 0.958802223  10.5 4.62159061 1.82634306  10.5 3.88091111 2.5758636  10.5 3.02052855 3.18424606  10.5 2.0669806 3.632725  10.5 1.04967844 3.90746784  11 5.21972132 0.958802223  11 4.62159061 1.82634306  11 3.88091111 2.5758636  11 3.02052855 3.18424606  11 2.0669806 3.632725  11 1.04967844 3.90746784  11.5 5.21972132 0.958802223  11.5 4.62159061 1.82634306  11.5 3.88091111 2.5758636  11.5 3.02052855 3.18424606  11.5 2.0669806 3.632725  11.5 1.04967844 3.90746784  12 5.21972132 0.958802223  12 4.62159061 1.82634306  12 3.88091111 2.5758636  12 3.02052855 3.18424606  12 2.0669806 3.632725  12 1.04967844 3.90746784  12.5 5.21972132 0.958802223  12.5 4.62159061 1.82634306  12.5 3.88091111 2.5758636  12.5 3.02052855 3.18424606  12.5 2.0669806 3.632725  12.5 1.04967844 3.90746784  13 5.21972132 0.958802223  13 4.62159061 1.82634306  13 3.88091111 2.5758636  13 3.02052855 3.18424606  13 2.0669806 3.632725  13 1.04967844 3.90746784  13.5 5.21972132 0.958802223  13.5 4.62159061 1.82634306  13.5 3.88091111 2.5758636  13.5 3.02052855 3.18424606  13.5 2.0669806 3.632725  13.5 1.04967844 3.90746784  14 5.21972132 0.958802223  14 4.62159061 1.82634306  14 3.88091111 2.5758636  14 3.02052855 3.18424606  14 2.0669806 3.632725  14 1.04967844 3.90746784  14.5 5.21972132 0.958802223  14.5 4.62159061 1.82634306  14.5 3.88091111 2.5758636  14.5 3.02052855 3.18424606  14.5 2.0669806 3.632725  14.5 1.04967844 3.90746784  15 5.21972132 0.958802223  15 4.62159061 1.82634306  15 3.88091111 2.5758636  15 3.02052855 3.18424606  15 2.0669806 3.632725  15 1.04967844 3.90746784  15.5 5.21972132 0.958802223  15.5 4.62159061 1.82634306  15.5 3.88091111 2.5758636  15.5 3.02052855 3.18424606  15.5 2.0669806 3.632725  15.5 1.04967844 3.90746784  16 5.21972132 0.958802223  16 4.62159061 1.82634306  16 3.88091111 2.5758636  16 3.02052855 3.18424606  16 2.0669806 3.632725  16 1.04967844 3.90746784  16.5 5.21972132 0.958802223  16.5 4.62159061 1.82634306  16.5 3.88091111 2.5758636  16.5 3.02052855 3.18424606  16.5 2.0669806 3.632725  16.5 1.04967844 3.90746784  17 5.21972132 0.958802223  17 4.62159061 1.82634306  17 3.88091111 2.5758636  17 3.02052855 3.18424606  17 2.0669806 3.632725  17 1.04967844 3.90746784  17.5 5.21972132 0.958802223  17.5 4.62159061 1.82634306  17.5 3.88091111 2.5758636  17.5 3.02052855 3.18424606  17.
[...]
<PointData  Vectors="f_261141-0"> 
<DataArray  type="Float64"  Name="f_261141-0"  NumberOfComponents="3" format="ascii">0.0000000000000000e+00 0.0000000000000000e+00 0.0000000000000000e+00  0.0000000000000000e+00 0.0000000000000000e+00 1.9351110261282261e-02  0.0000000000000000e+00 8.2126990701880245e-02 0.0000000000000000e+00  2.8684302509535425e-01 0.0000000000000000e+00 1.7353313501402288e+00  6.1361268545883918e-01 5.9017904853000125e-02 1.7752812436107468e+00  5.8646113981447068e-01 0.0000000000000000e+00 1.7376781917694666e+00  0.0000000000000000e+00 0.0000000000000000e+00 1.9591095892197291e-02  0.0000000000000000e+00 0.0000000000000000e+00 1.4429399305260500e-02  0.0000000000000000e+00 0.0000000000000000e+00 6.3002082466891794e-03  0.0000000000000000e+00 -6.5612184761268703e-03 2.0994334063003300e-02  0.0000000000000000e+00 5.9968847825424710e-03 3.8501914329159628e-02  0.0000000000000000e+00 1.8913593011365571e-02 3.8276789535372904e-02  0.0000000000000000e+00 3.2896566457755134e-02 3.5296793882434632e-02  0.0000000000000000e+00 4.3494800108257077e-02 3.6913310040152816e-02  0.0000000000000000e+00 5.9795963548541400e-02 2.1681522703306144e-02  0.0000000000000000e+00 5.5178822671001847e-02 0.0000000000000000e+00  0.0000000000000000e+00 4.1230332666205058e-02 0.0000000000000000e+00  0.0000000000000000e+00 2.6251099111548184e-02 0.0000000000000000e+00  0.0000000000000000e+00 1.5821399166063076e-02 0.0000000000000000e+00  0.0000000000000000e+00 7.4114087852941331e-03 0.0000000000000000e+00  4.3033630791067534e-03 0.0000000000000000e+00 1.9679445547912965e-02  6.9633951628516270e-03 0.0000000000000000e+00 1.7659088388658772e-02  9.6618603759839796e-03 0.0000000000000000e+00 1.8176643933655236e-02  1.3239703312523105e-02 0.0000000000000000e+00 1.9049659153860872e-02  1.7963275798822769e-02 0.0000000000000000e+00 1.9481632902915432e-02  2.0160987367137093e-02 0.0000000000000000e+00 2.1998944125644838e-02  2.4199850775382600e-02 0.0000000000000000e+00 2.4263966886666349e-02  2.6470504279038513e-02 0.0000000000000000e+00 2.7558232928550270e-02  2.9741029415054295e-02 0.0000000000000000e+00 3.2880536233213090e-02  3.2914245572406665e-02 0.0000000000000000e+00 3.9987107687083905e-02  3.6990968412988448e-02 0.0000000000000000e+00 4.3541640804279705e-02  4.1635407544834989e-02 0.0000000000000000e+00 4.3238619503428798e-02  4.4594505612869317e-02 0.0000000000000000e+00 4.9203731510597377e-02  4.5745796136314715e-02 0.0000000000000000e+00 5.5637363161013392e-02  5.2139401843271212e-02 0.0000000000000000e+00 5.9124966230482884e-02  5.3839095390435000e-02 0.0000000000000000e+00 6.6141718961775203e-02  5.7576579621686705e-02 0.0000000000000000e+00 7.3323895724409768e-02  6.1199305951447729e-02 0.0000000000000000e+00 8.0331283700949663e-02  6.5079144430792629e-02 0.0000000000000000e+00 8.4368973745092044e-02  6.8865245000873071e-02 0.0000000000000000e+00 9.0098862329913640e-02  7.2194003394708467e-02 0.0000000000000000e+00 9.4690532486310305e-02  7.7229566130346081e-02 0.0000000000000000e+00 1.0410290389737947e-01  8.0104619779705566e-02 0.0000000000000000e+00 1.0966637205041058e-01  8.3559391611875575e-02 0.0000000000000000e+00 1.1829339583309118e-01  8.7900119503406357e-02 0.0000000000000000e+00 1.2669337252902782e-01  9.0886619835757701e-02 0.0000000000000000e+00 1.3661712542822091e-01  9.2588715908066985e-02 0.0000000000000000e+00 1.4885917663709772e-01  9.6916748700586419e-02 0.0000000000000000e+00 1.5448214835412738e-01  9.9771262546357056e-02 0.0000000000000000e+00 1.6567162127787022e-01  1.0160795984788686e-01 0.0000000000000000e+00 1.7716498485061782e-01  1.0802435854260255e-01 0.0000000000000000e+00 1.8135105530006779e-01  1.1220079711410691e-01 0.0000000000000000e+00 1.9344419391938758e-01  1.1458131230316616e-01 0.0000000000000000e+00 2.0646375155620716e-01  1.1846384011292967e-01 0.0000000000000000e+00 2.1768262155954207e-01  1.2268244509862110e-01 0.0000000000000000e+00 2.3112808691811457e-01  1.2692039157186313e-01 0.0000000000000000e+00 2.4065887200079916e-01  1.2911814520409406e-01 0.0000000000000000e+00 2.5631658683189817e-01  1.3317418210423462e-01 0.0000000000000000e+00 2.6552368006091104e-01  1.3633514792643284e-01 0.0000000000000000e+00 2.8146435933874608e-01  1.3967744352494063e-01 0.0000000000000000e+00 2.9268594473706627e-01  1.4417517448124084e-01 0.0000000000000000e+00 3.0436428502918572e-01  1.4540866189327284e-01 0.0000000000000000e+00 3.1696104059257851e-01  1.4916460056596278e-01 0.0000000000000000e+00 3.3061215761678087e-01  1.5054854911033094e-01 0.0000000000000000e+00 3.4931193814082773e-01  1.5582928989696965e-01 0.0000000000000000e+00 3.6053242005192082e-01  1.5857676606017729e-01 0.0000000000000000e+00 3.7625258589664101e-01  1.6161656182609174e-01 0.0000000000000000e+00 3.8983671821858928e-01  1.6367730060748678e-01 0.0000000000000000e+00 4.0717927780768293e-01  1.6733201253460692e-01 0.0000000000000000e+00 4.2297063531884099e-01  1.6980223272527656e-01 0.0000000000000000e+00 4.4117011546154072e-01  1.7301316196331515e-01 0.0000000000000000e+00 4.6035054192629926e-01  1.7650624456144987e-01 0.0000000000000000e+00 4.7682570195408069e-01  1.7929779317207145e-01 0.0000000000000000e+00 4.9794968580382593e-01  1.8276233554144500e-01 0.0000000000000000e+00 5.1510072540594909e-01  1.8697845301143137e-01 0.0000000000000000e+00 5.3176178303867794e-01  1.8830948504924436e-01 0.0000000000000000e+00 5.4855856292860072e-01  1.9226844086430442e-01 0.0000000000000000e+00 5.6832612052267151e-01  1.9541420052112507e-01 0.0000000000000000e+00 5.8909780715042004e-01  1.9779336662673172e-01 0.0000000000000000e+00 6.0919257779022695e-01  1.9923464507252561e-01 0.0000000000000000e+00 6.3028332868716730e-01  2.0195753110078590e-01 0.0000000000000000e+00 6.5250509252601840e-01  2.0554925204864172e-01 0.0000000000000000e+00 6.7284590825149371e-01  2.0903746810971005e-01 0.0000000000000000e+00 6.9299379698281138e-01  2.1299372078844359e-01 0.0000000000000000e+00 7.1628352235246717e-01  2.1475504563851466e-01 0.0000000000000000e+00 7.3946475704139714e-01  2.1702179328789889e-01 0.0000000000000000e+00 7.6172723944647447e-01  2.2022327693738333e-01 0.0000000000000000e+00 7.8396632340402594e-01  2.2446801864350560e-01 0.0000000000000000e+00 8.0762840018135618e-01  2.2671820712832361e-01 0.0000000000000000e+00 8.3047103755914742e-01  2.2963823422251783e-01 0.0000000000000000e+00 8.5712812067781674e-01  2.3195519911925366e-01 0.0000000000000000e+00 8.8120008164875585e-01  2.3547372924956728e-01 0.0000000000000000e+00 9.0551791216639999e-01  2.3709657467868642e-01 0.0000000000000000e+00 9.3454306397121700e-01  2.4077463016955702e-01 0.0000000000000000e+00 9.5900198105557877e-01  2.4360287660546578e-01 0.0000000000000000e+00 9.8374650509073358e-01  2.4777372626400987e-01 0.0000000000000000e+00 1.0103143757564930e+00  2.4976461198741390e-01 0.0000000000000000e+00 1.0371412635544417e+00  2.5271684410011797e-01 0.0000000000000000e+00 1.0627920298870677e+00  2.5414988765316071e-01 0.0000000000000000e+00 1.0917266676378115e+00  2.5621699847396895e-01 0.0000000000000000e+00 1.1206835429585120e+00  2.6006669990400316e-01 0.0000000000000000e+00 1.1498088654342289e+00  2.6181526183575848e-01 0.0000000000000000e+00 1.1781171534365016e+00  2.6446746493852008e-01 0.0000000000000000e+00 1.2080203964703697e+00  2.6782233574006153e-01 0.0000000000000000e+00 1.2366064718066136e+00  2.6987319711545121e-01 0.0000000000000000e+00 1.2633816041352330e+00  2.7166692791830521e-01 0.0000000000000000e+00 1.2942803853690330e+00  2.7468007434815128e-01 0.0000000000000000e+00 1.3231022533584373e+00  2.7768610349470652e-01 0.0000000000000000e+00 1.3531199804634741e+00  2.8024246101624517e-01 0.0000000000000000e+00 1.3826551312875273e+00  2.8222391715536926e-01 0.0000000000000000e+00 1.4142923862766947e+00  2.8262180052691532e-01 0.0000000000000000e+00 1.4463609556691395e+00  2.8373661237010372e-01 0.0000000000000000e+00 1.4803653322849413e+00  2.8635477611193194e-01 0.0000000000000000e+00 1.5114671927075189e+00  2.8848213832932240e-01 0.0000000000000000e+00 1.5418965580793238e+00  2.9096288459631120e-01 0.0000000000000000e+00 1.5709490113793034e+00  2.9059969830281784e-01 0.0000000000000000e+00 1.6023807714824720e+00  2.9017755125332206e-01 0.0000000000000000e+00 1.6335793363449718e+00  2.8923832016953899e-01 0.0000000000000000e+00 1.6664366693887362e+00  2.8753886891178920e-01 0.0000000000000000e+00 1.6998685098922133e+00  2.9954527417825599e-01 -3.4001536737887405e-03 1.7345409288764038e+00  3.2325919849612966e-01 -5.0566245942480605e-03 1.7387378359412005e+00  3.5630562343584776e-01 -4.9211333153728887e-03 1.7459763225941392e+00  4.0345950211839249e-01 -1.4726565637149653e-03 1.7554541250754130e+00  4.5744463155224185e-01 8.5606366842925930e-03 1.7688487183495079e+00  5.3122683164864470e-01 2.5125621533498461e-02 1.7783991094718279e+00  6.0666141084953351e-01 6.2327901173023136e-02 1.7358306309289933e+00  5.9953728563662079e-01 6.5231886028686806e-02 1.6958191379821470e+00  5.9280259388574108e-01 6.9536816654054603e-02 1.6569601507882135e+00  5.8775044104567697e-01 7.3173340217874971e-02 1.6168149813389563e+00  5.8073573866660155e-01 7.7580048638047253e-02 1.5796502018122118e+00  5.7268087967860526e-01 7.9174684049456684e-02 1.5436136509849854e+00  5.6427906635549574e-01 8.1042974630567546e-02 1.5083882156007506e+00  5.5707675099993714e-01 8.1732176118724950e-02 1.4735306344237860e+00  5.4982214886164205e-01 8.2165280150184872e-02 1.4394677384076036e+00  5.4273504731237843e-01 8.2972814152105959e-02 1.4057389593932490e+00  5.3589814285307835e-01 8.3260681667112646e-02 1.3723436184085838e+00  5.2898736638209232e-01 8.0583842996579044e-02 1.3413263220151515e+00  5.2269703376894250e-01 8.0336532148608752e-02 1.3082246609342154e+00  5.1661465922562011e-01 7.9095566734849271e-02 1.2765609365037927e+00  5.0979963436497455e-01 7.8195308953527123e-02 1.2481035606708031e+00  5.0578608407238912e-01 7.9822048443597582e-02 1.2186393130353697e+00  4.9923103279820158e-01 7.9820248687398537e-02 1.1862844032154909e+00  4.9346801240555266e-01 7.7387199878801119e-02 1.1560948867522964e+00  4.8666992109704249e-01 7.6127304502419862e-02 1.1272784756562853e+00  4.8017463462605631e-01 7.5755051548993382e-02 1.0981234743214523e+00  4.7455202962781379e-01 7.4930854137418526e-02 1.0693393976803152e+00  4.7012467353572274e-01 7.5897485994000841e-02 1.0387552593696718e+00  4.6511868964863112e-01 7.4964784109050595e-02 1.0116349537391147e+00  4.5912986553635760e-01 7.7542903485738460e-02 9.8385685392839717e-01  4.5307862930366083e-01 7.6665921515083016e-02 9.5814423081636046e-01  4.4762005235241076e-01 7.6403345247476523e-02 9.3164537457503438e-01  4.4226311226208931e-01 7.5502817534994729e-02 9.0578484911616386e-01  4.3650837884441585e-01 7.5693454017523629e-02 8.8102236533706890e-01  4.3122884088679830e-01 7.4242722161036681e-02 8.5574429350834269e-01  4.2520119821865604e-01 7.4580267952532572e-02 8.3093205882039134e-01  4.1996651980708033e-01 7.5773206779619656e-02 8.0613128592360983e-01  4.1457355146981378e-01 7.4574047631960516e-02 7.8311152195293854e-01  4.0880815008405902e-01 7.5626639139789592e-02 7.5951116958613385e-01  4.0336959032587666e-01 7.5945905644565381e-02 7.3660983825860216e-01  3.9743148898918074e-01 7.6916107507542061e-02 7.1396737091612439e-01  3.9181484059419136e-01 7.7602171160687225e-02 6.9186188917246005e-01  3.8529274696075244e-01 7.7962102951350684e-02 6.7093023527350271e-01  3.7947288318925720e-01 7.7240901872225806e-02 6.4891255320410224e-01  3.7416189511359438e-01 7.5567251585738515e-02 6.2797833287774851e-01  3.6753661230228118e-01 7.7472816149420767e-02 6.0752368209724683e-01  3.6162605166035078e-01 7.8815266838954026e-02 5.8644251652260937e-01  3.5540839163830179e-01 7.6394134756577636e-02 5.6653656475117642e-01  3.4911626265440870e-01 7.8952436342155721e-02 5.4455556066991950e-01  3.4272802409464392e-01 7.7753699042817162e-02 5.2475231260550104e-01  3.3673428529601679e-01 7.6643182623184022e-02 5.0534057361044860e-01  3.3070323420725117e-01 7.7117483570037670e-02 4.8482206904081276e-01  3.2431600430944896e-01 7.7402060620066243e-02 4.6553344341443570e-01  3.1845044358411034e-01 7.5581250110085194e-02 4.4693667412214072e-01  3.1253296413210796e-01 7.6236708132484093e-02 4.2840670868342645e-01  3.0664883938991883e-01 7.5294848978864889e-02 4.1050496651703378e-01  3.0027582706010886e-01 7.5326549220569611e-02 3.9337870077831555e-01  2.9477305797657760e-01 7.4062189632257316e-02 3.7745502877188547e-01  2.8895350546518028e-01 7.5280971750697062e-02 3.6002312283792498e-01  2.8284002234665312e-01 7.4452700255381324e-02 3.4623589757912443e-01  2.7674259444738086e-01 7.5079012315272184e-02 3.3208595709474875e-01  2.7073515405199378e-01 7.5308799127327297e-02 3.1639618255473373e-01  2.6554343286045839e-01 7.4738444192302911e-02 3.0062680210136178e-01  2.5938142133498243e-01 7.4761308336069018e-02 2.8653869967883039e-01  2.5291758187324082e-01 7.5646560546014513e-02 2.7253116575531033e-01  2.4609386874317929e-01 7.6075958813879518e-02 2.5980493497867518e-01  2.4030116598894868e-01 7.4467395697180305e-02 2.4679921780852415e-01  2.3363471668393745e-01 7.4670757735090104e-02 2.3515835611294056e-01  2.2778425165094163e-01 7.4984285201577808e-02 2.2160522376856007e-01  2.2091673144000318e-01 7.5198221115773137e-02 2.1018123027142066e-01  2.1511588343066554e-01 7.4998582625349697e-02 1.9800999629742824e-01  2.0943274245906013e-01 7.6964211095731344e-02 1.8545977729389646e-01  2.0298356942376530e-01 7.5516019791169051e-02 1.7690902014152815e-01  1.9687907062692880e-01 7.6927366285055365e-02 1.6653596076610777e-01  1.9030546099143694e-01 7.6259516072358646e-02 1.5664057643201215e-01  1.8393793357488053e-01 7.6652641835865135e-02 1.4644229084976704e-01  1.7823571437195895e-01 7.6439562662543370e-02 1.3579975820061144e-01  1.7241308792219873e-01 7.6172313550748605e-02 1.2641319539025814e-01  1.6618828289285525e-01 7.5735013273608778e-02 1.1774345526445901e-01  1.6052783955060684e-01 7.5942619639141465e-02 1.0830747651985187e-01  1.5471979516815135e-01 7.5472925820752976e-02 9.9695170217766318e-02  1.4886982442843991e-01 7.6569410274867911e-02 9.0344423729388765e-02  1.4230726383538303e-01 7.6317009290474414e-02 8.2734239990617742e-02  1.3520808963130684e-01 7.6372586618020516e-02 7.5014116218173763e-02  1.2931425516329778e-01 7.6064725389758114e-02 6.8294237186991236e-02  1.2357637701540644e-01 7.7541424944889345e-02 5.9836943963779241e-02  1.1755395921727682e-01 7.6163467395935658e-02 5.4176387976273083e-02  1.1154615239608057e-01 7.5443274794479168e-02 4.7650988518800834e-02  1.0517900475887454e-01 7.7781462037100499e-02 4.0334364415926284e-02  9.8907659925037708e-02 7.7058573769831037e-02 3.6109972765222105e-02  9.1909552385577950e-02 7.7625252603199316e-02 3.2908310598718842e-02  8.5813726116177075e-02 7.8033140607642326e-02 2.7506924858551642e-02  7.9925464420129863e-02 7.8870379415181824e-02 2.1638112681962213e-02  7.3526119688435740e-02 7.7282052925924327e-02 1.9420279321276407e-02  6.7747326208533673e-02 7.8372169578073816e-02 1.5128237836216139e-02  6.1858661282046201e-02 7.7635310802573715e-02 1.2142177752716189e-02  5.5674817191849704e-02 7.8767609560940977e-02 9.2518506864915900e-03  4.9733225772026539e-02 7.9105220476761079e-02 6.6575401280915382e-03  4.3571652277555051e-02 7.9529419495262196e-02 4.7545404812027363e-03  3.8020426084484985e-02 7.9227380813513840e-02 1.4307934276372668e-03  3.1741822789305742e-02 8.0376370562954089e-02 -3.8239358012404540e-04  2.5488385504307435e-02 7.8972293196453019e-02 1.3530315364425214e-04  1.9356055802165296e-02 8.2070860794925399e-02 -6.3017491431745828e-04  1.2525497665543218e-02 8.2598593934794337e-02 0.0000000000000000e+00  6.0269021190284561e-03 8.2463593104504712e-02 0.0000000000000000e+00  6.1034086986793790e-01 4.0866979900778810e-02 1.7618376653689296e+00  6.0243923321645343e-01 2.8988685903058330e-02 1.7527999288708700e+00  5.9358116803749184e-01 1.8275291382605960e-02 1.7432716270838335e+00  5.9686227692910798e-01 1.4460527791340456e-02 1.7453316978444680e+00  5.8981346727533812e-01 5.2525336563692621e-03 1.7407553600703816e+00  5.7754323801962049e-01 0.0000000000000000e+00 1.6967274075270087e+00  5.7130710904098603e-01 0.0000000000000000e+00 1.6614533508655887e+00  5.6449838061172952e-01 0.0000000000000000e+00 1.6244961877102222e+00  5.5904962319598628e-01 0.0000000000000000e+00 1.5908758184366842e+00  5.5131984952867963e-01 0.0000000000000000e+00 1.5613945086099597e+00  5.4752340162276192e-01 0.0000000000000000e+00 1.5275197361465316e+00  5.4176462741613018e-01 0.0000000000000000e+00 1.4982719919499854e+00  5.3697742821221439e-01 0.0000000000000000e+00 1.4682052765315918e+00  5.3438979343336512e-01 0.0000000000000000e+00 1.4327396068068692e+00  5.2848909350985962e-01 0.0000000000000000e+00 1.4065557827910997e+00  5.2340020044930835e-01 0.0000000000000000e+00 1.3788443967910498e+00  5.1899434359059682e-01 0.0000000000000000e+00 1.3460372755593188e+00  5.1473483328233161e-01 0.0000000000000000e+00 1.3143348023916352e+00  5.1173115889208132e-01 0.0000000000000000e+00 1.2812424315272171e+00  5.0595509487915580e-01 0.0000000000000000e+00 1.2573502414195845e+00  4.9826002892812521e-01 0.0000000000000000e+00 1.2291037062323262e+00  4.9165189129264314e-01 0.0000000000000000e+00 1.2005997514572555e+00  4.8945290193418439e-01 0.0000000000000000e+00 1.1659129613311399e+00  4.8523291694301635e-01 0.0000000000000000e+00 1.1431681731592727e+00  4.7899775424633484e-01 0.0000000000000000e+00 1.1114666436832508e+00  4.7571717812045106e-01 0.0000000000000000e+00 1.0801736043345027e+00  4.6730666935580256e-01 0.0000000000000000e+00 1.0597623285507474e+00  4.6339748241245582e-01 0.0000000000000000e+00 1.0285884459420280e+00  4.5976446574459418e-01 0.0000000000000000e+00 1.0051978980105134e+00  4.5182094748810198e-01 0.0000000000000000e+00 9.7729651214751501e-01  4.4525187788334886e-01 0.0000000000000000e+00 9.5056209735191721e-01  4.4165209589285270e-01 0.0000000000000000e+00 9.1855866194761659e-01  4.3553691171713632e-01 0.0000000000000000e+00 8.9811457594250876e-01  4.3049644067441206e-01 0.0000000000000000e+00 8.7122513083397202e-01  4.2606747916520005e-01 0.0000000000000000e+00 8.4894826995984296e-01  4.1784305639045105e-01 0.0000000000000000e+00 8.2645623339149377e-01  4.1028881756906038e-01 0.0000000000000000e+00 8.0247690457967413e-01  4.0767660774194486e-01 0.0000000000000000e+00 7.7323528751061321e-01  4.0235914873357365e-01 0.0000000000000000e+00 7.5372507603677596e-01  3.9792557448130028e-01 0.0000000000000000e+00 7.2594406383269283e-01  3.9071974973919771e-01 0.0000000000000000e+00 7.0963179138964549e-01  3.8372846798601407e-01 0.0000000000000000e+00 6.8396396159117456e-01  3.8004731241726125e-01 0.0000000000000000e+00 6.6028733179464016e-01  3.7405222875760163e-01 0.0000000000000000e+00 6.4266801164260035e-01  3.6839018590242628e-01 0.0000000000000000e+00 6.1643741223507087e-01  3.6093914965266483e-01 0.0000000000000000e+00 6.0124936732032508e-01  3.5332377763358386e-01 0.0000000000000000e+00 5.7727841473583330e-01  3.4946228625784226e-01 0.0000000000000000e+00 5.5345098684983796e-01  3.4257918899281437e-01 0.0000000000000000e+00 5.3997202766768015e-01  3.3469568738398436e-01 0.0000000000000000e+00 5.2256929293300380e-01  3.3029342941463852e-01 0.0000000000000000e+00 4.9884921431687840e-01  3.2350595853248160e-01 0.0000000000000000e+00 4.8586917031304533e-01  3.2000683581322320e-01 0.0000000000000000e+00 4.6274534911997095e-01  3.1356317967389219e-01 0.0000000000000000e+00 4.4929934781970488e-01  3.0621977829523733e-01 0.0000000000000000e+00 4.3139879764774847e-01  2.9858419656156437e-01 0.0000000000000000e+00 4.1373580363764945e-01  2.9394481596433875e-01 0.0000000000000000e+00 3.9353192827812855e-01  2.8643637818719414e-01 0.0000000000000000e+00 3.8352340156161319e-01  2.8222890013917851e-01 0.0000000000000000e+00 3.6248048376597458e-01  2.7599799460527685e-01 0.0000000000000000e+00 3.508975944873779