<?xml version="1.0"?>
<VTKFile type="UnstructuredGrid"  version="0.1"  >
<UnstructuredGrid>
<Piece  NumberOfPoints="3069" NumberOfCells="12882">
<Points>
<DataArray  type="Float64"  NumberOfComponents="3"  format="ascii">0 0 0  0 0 4  0 5.65685415 0  50 0 4  50 5.65685415 0  50 0 0  0 0 1  0 0 2  0 0 3  0 1.04967844 3.90746784  0 2.0669806 3.632725  0 3.02052855 3.18424606  0 3.88091111 2.5758636  0 4.62159061 1.82634306  0 5.21972132 0.958802283  0 4.71404505 0  0 3.77123618 0  0 2.82842708 0  0 1.88561809 0  0 0.942809045 0  0.5 0 4  1 0 4  1.5 0 4  2 0 4  2.5 0 4  3 0 4  3.5 0 4  4 0 4  4.5 0 4  5 0 4  5.5 0 4  6 0 4  6.5 0 4  7 0 4  7.5 0 4  8 0 4  8.5 0 4  9 0 4  9.5 0 4  10 0 4  10.5 0 4  11 0 4  11.5 0 4  12 0 4  12.5 0 4  13 0 4  13.5 0 4  14 0 4  14.5 0 4  15 0 4  15.5 0 4  16 0 4  16.5 0 4  17 0 4  17.5 0 4  18 0 4  18.5 0 4  19 0 4  19.5 0 4  20 0 4  20.5 0 4  21 0 4  21.5 0 4  22 0 4  22.5 0 4  23 0 4  23.5 0 4  24 0 4  24.5 0 4  25 0 4  25.5 0 4  26 0 4  26.5 0 4  27 0 4  27.5 0 4  28 0 4  28.5 0 4  29 0 4  29.5 0 4  30 0 4  30.5 0 4  31 0 4  31.5 0 4  32 0 4  32.5 0 4  33 0 4  33.5 0 4  34 0 4  34.5 0 4  35 0 4  35.5 0 4  36 0 4  36.5 0 4  37 0 4  37.5 0 4  38 0 4  38.5 0 4  39 0 4  39.5 0 4  40 0 4  40.5 0 4  41 0 4  41.5 0 4  42 0 4  42.5 0 4  43 0 4  43.5 0 4  44 0 4  44.5 0 4  45 0 4  45.5 0 4  46 0 4  46.5 0 4  47 0 4  47.5 0 4  48 0 4  48.5 0 4  49 0 4  49.5 0 4  50 1.04967844 3.90746784  50 2.0669806 3.632725  50 3.02052855 3.18424606  50 3.88091111 2.5758636  50 4.62159061 1.82634306  50 5.21972132 0.958802283  49.5 5.65685415 0  49 5.65685415 0  48.5 5.65685415 0  48 5.65685415 0  47.5 5.65685415 0  47 5.65685415 0  46.5 5.65685415 0  46 5.65685415 0  45.5 5.65685415 0  45 5.65685415 0  44.5 5.65685415 0  44 5.65685415 0  43.5 5.65685415 0  43 5.65685415 0  42.5 5.65685415 0  42 5.65685415 0  41.5 5.65685415 0  41 5.65685415 0  40.5 5.65685415 0  40 5.65685415 0  39.5 5.65685415 0  39 5.65685415 0  38.5 5.65685415 0  38 5.65685415 0  37.5 5.65685415 0  37 5.65685415 0  36.5 5.65685415 0  36 5.65685415 0  35.5 5.65685415 0  35 5.65685415 0  34.5 5.65685415 0  34 5.65685415 0  33.5 5.65685415 0  33 5.65685415 0  32.5 5.65685415 0  32 5.65685415 0  31.5 5.65685415 0  31 5.65685415 0  30.5 5.65685415 0  30 5.65685415 0  29.5 5.65685415 0  29 5.65685415 0  28.5 5.65685415 0  28 5.65685415 0  27.5 5.65685415 0  27 5.65685415 0  26.5 5.65685415 0  26 5.65685415 0  25.5 5.65685415 0  25 5.65685415 0  24.5 5.65685415 0  24 5.65685415 0  23.5 5.65685415 0  23 5.65685415 0  22.5 5.65685415 0  22 5.65685415 0  21.5 5.65685415 0  21 5.65685415 0  20.5 5.65685415 0  20 5.65685415 0  19.5 5.65685415 0  19 5.65685415 0  18.5 5.65685415 0  18 5.65685415 0  17.5 5.65685415 0  17 5.65685415 0  16.5 5.65685415 0  16 5.65685415 0  15.5 5.65685415 0  15 5.65685415 0  14.5 5.65685415 0  14 5.65685415 0  13.5 5.65685415 0  13 5.65685415 0  12.5 5.65685415 0  12 5.65685415 0  11.5 5.65685415 0  11 5.65685415 0  10.5 5.65685415 0  10 5.65685415 0  9.5 5.65685415 0  9 5.65685415 0  8.5 5.65685415 0  8 5.65685415 0  7.5 5.65685415 0  7 5.65685415 0  6.5 5.65685415 0  6 5.65685415 0  5.5 5.65685415 0  5 5.65685415 0  4.5 5.65685415 0  4 5.65685415 0  3.5 5.65685415 0  3 5.65685415 0  2.5 5.65685415 0  2 5.65685415 0  1.5 5.65685415 0  1 5.65685415 0  0.5 5.65685415 0  50 4.71404505 0  50 3.77123618 0  50 2.82842708 0  50 1.88561809 0  50 0.942809045 0  49.5 0 0  49 0 0  48.5 0 0  48 0 0  47.5 0 0  47 0 0  46.5 0 0  46 0 0  45.5 0 0  45 0 0  44.5 0 0  44 0 0  43.5 0 0  43 0 0  42.5 0 0  42 0 0  41.5 0 0  41 0 0  40.5 0 0  40 0 0  39.5 0 0  39 0 0  38.5 0 0  38 0 0  37.5 0 0  37 0 0  36.5 0 0  36 0 0  35.5 0 0  35 0 0  34.5 0 0  34 0 0  33.5 0 0  33 0 0  32.5 0 0  32 0 0  31.5 0 0  31 0 0  30.5 0 0  30 0 0  29.5 0 0  29 0 0  28.5 0 0  28 0 0  27.5 0 0  27 0 0  26.5 0 0  26 0 0  25.5 0 0  25 0 0  24.5 0 0  24 0 0  23.5 0 0  23 0 0  22.5 0 0  22 0 0  21.5 0 0  21 0 0  20.5 0 0  20 0 0  19.5 0 0  19 0 0  18.5 0 0  18 0 0  17.5 0 0  17 0 0  16.5 0 0  16 0 0  15.5 0 0  15 0 0  14.5 0 0  14 0 0  13.5 0 0  13 0 0  12.5 0 0  12 0 0  11.5 0 0  11 0 0  10.5 0 0  10 0 0  9.5 0 0  9 0 0  8.5 0 0  8 0 0  7.5 0 0  7 0 0  6.5 0 0  6 0 0  5.5 0 0  5 0 0  4.5 0 0  4 0 0  3.5 0 0  3 0 0  2.5 0 0  2 0 0  1.5 0 0  1 0 0  0.5 0 0  50 0 1  50 0 2  50 0 3  0 2.33524275 0.893602192  0 2.87561393 1.93323028  0 4.2367816 0.876864135  0 2.00050235 2.65534091  0 0.981494486 2.34323239  0 3.78543234 1.61830366  0 3.30545568 0.887000024  0 0.812916458 1.58408713  0 1.71948838 1.71268857  0 1.28267908 0.8650629520000001  0 1.21973121 3.10775328  0.5 5.21972132 0.958802223  0.5 4.62159061 1.82634306  0.5 3.88091111 2.5758636  0.5 3.02052855 3.18424606  0.5 2.0669806 3.632725  0.5 1.04967844 3.90746784  1 5.21972132 0.958802223  1 4.62159061 1.82634306  1 3.88091111 2.5758636  1 3.02052855 3.18424606  1 2.0669806 3.632725  1 1.04967844 3.90746784  1.5 5.21972132 0.958802223  1.5 4.62159061 1.82634306  1.5 3.88091111 2.5758636  1.5 3.02052855 3.18424606  1.5 2.0669806 3.632725  1.5 1.04967844 3.90746784  2 5.21972132 0.958802223  2 4.62159061 1.82634306  2 3.88091111 2.5758636  2 3.02052855 3.18424606  2 2.0669806 3.632725  2 1.04967844 3.90746784  2.5 5.21972132 0.958802223  2.5 4.62159061 1.82634306  2.5 3.88091111 2.5758636  2.5 3.02052855 3.18424606  2.5 2.0669806 3.632725  2.5 1.04967844 3.90746784  3 5.21972132 0.958802223  3 4.62159061 1.82634306  3 3.88091111 2.5758636  3 3.02052855 3.18424606  3 2.0669806 3.632725  3 1.04967844 3.90746784  3.5 5.21972132 0.958802223  3.5 4.62159061 1.82634306  3.5 3.88091111 2.5758636  3.5 3.02052855 3.18424606  3.5 2.0669806 3.632725  3.5 1.04967844 3.90746784  4 5.21972132 0.958802223  4 4.62159061 1.82634306  4 3.88091111 2.5758636  4 3.02052855 3.18424606  4 2.0669806 3.632725  4 1.04967844 3.90746784  4.5 5.21972132 0.958802223  4.5 4.62159061 1.82634306  4.5 3.88091111 2.5758636  4.5 3.02052855 3.18424606  4.5 2.0669806 3.632725  4.5 1.04967844 3.90746784  5 5.21972132 0.958802223  5 4.62159061 1.82634306  5 3.88091111 2.5758636  5 3.02052855 3.18424606  5 2.0669806 3.632725  5 1.04967844 3.90746784  5.5 5.21972132 0.958802223  5.5 4.62159061 1.82634306  5.5 3.88091111 2.5758636  5.5 3.02052855 3.18424606  5.5 2.0669806 3.632725  5.5 1.04967844 3.90746784  6 5.21972132 0.958802223  6 4.62159061 1.82634306  6 3.88091111 2.5758636  6 3.02052855 3.18424606  6 2.0669806 3.632725  6 1.04967844 3.90746784  6.5 5.21972132 0.958802223  6.5 4.62159061 1.82634306  6.5 3.88091111 2.5758636  6.5 3.02052855 3.18424606  6.5 2.0669806 3.632725  6.5 1.04967844 3.90746784  7 5.21972132 0.958802223  7 4.62159061 1.82634306  7 3.88091111 2.5758636  7 3.02052855 3.18424606  7 2.0669806 3.632725  7 1.04967844 3.90746784  7.5 5.21972132 0.958802223  7.5 4.62159061 1.82634306  7.5 3.88091111 2.5758636  7.5 3.02052855 3.18424606  7.5 2.0669806 3.632725  7.5 1.04967844 3.90746784  8 5.21972132 0.958802223  8 4.62159061 1.82634306  8 3.88091111 2.5758636  8 3.02052855 3.18424606  8 2.0669806 3.632725  8 1.04967844 3.90746784  8.5 5.21972132 0.958802223  8.5 4.62159061 1.82634306  8.5 3.88091111 2.5758636  8.5 3.02052855 3.18424606  8.5 2.0669806 3.632725  8.5 1.04967844 3.90746784  9 5.21972132 0.958802223  9 4.62159061 1.82634306  9 3.88091111 2.5758636  9 3.02052855 3.18424606  9 2.0669806 3.632725  9 1.04967844 3.90746784  9.5 5.21972132 0.958802223  9.5 4.62159061 1.82634306  9.5 3.88091111 2.5758636  9.5 3.02052855 3.18424606  9.5 2.0669806 3.632725  9.5 1.04967844 3.90746784  10 5.21972132 0.958802223  10 4.62159061 1.82634306  10 3.88091111 2.5758636  10 3.02052855 3.18424606  10 2.0669806 3.632725  10 1.04967844 3.90746784  10.5 5.21972132 0.958802223  10.5 4.62159061 1.82634306  10.5 3.88091111 2.5758636  10.5 3.02052855 3.18424606  10.5 2.0669806 3.632725  10.5 1.04967844 3.90746784  11 5.21972132 0.958802223  11 4.62159061 1.82634306  11 3.88091111 2.5758636  11 3.02052855 3.18424606  11 2.0669806 3.632725  11 1.04967844 3.90746784  11.5 5.21972132 0.958802223  11.5 4.62159061 1.82634306  11.5 3.88091111 2.5758636  11.5 3.02052855 3.18424606  11.5 2.0669806 3.632725  11.5 1.04967844 3.90746784  12 5.21972132 0.958802223  12 4.62159061 1.82634306  12 3.88091111 2.5758636  12 3.02052855 3.18424606  12 2.0669806 3.632725  12 1.04967844 3.90746784  12.5 5.21972132 0.958802223  12.5 4.62159061 1.82634306  12.5 3.88091111 2.5758636  12.5 3.02052855 3.18424606  12.5 2.0669806 3.632725  12.5 1.04967844 3.90746784  13 5.21972132 0.958802223  13 4.62159061 1.82634306  13 3.88091111 2.5758636  13 3.02052855 3.18424606  13 2.0669806 3.632725  13 1.04967844 3.90746784  13.5 5.21972132 0.958802223  13.5 4.62159061 1.82634306  13.5 3.88091111 2.5758636  13.5 3.02052855 3.18424606  13.5 2.0669806 3.632725  13.5 1.04967844 3.90746784  14 5.21972132 0.958802223  14 4.62159061 1.82634306  14 3.88091111 2.5758636  14 3.02052855 3.18424606  14 2.0669806 3.632725  14 1.04967844 3.90746784  14.5 5.21972132 0.958802223  14.5 4.62159061 1.82634306  14.5 3.88091111 2.5758636  14.5 3.02052855 3.18424606  14.5 2.0669806 3.632725  14.5 1.04967844 3.90746784  15 5.21972132 0.958802223  15 4.62159061 1.82634306  15 3.88091111 2.5758636  15 3.02052855 3.18424606  15 2.0669806 3.632725  15 1.04967844 3.90746784  15.5 5.21972132 0.958802223  15.5 4.62159061 1.82634306  15.5 3.88091111 2.5758636  15.5 3.02052855 3.18424606  15.5 2.0669806 3.632725  15.5 1.04967844 3.90746784  16 5.21972132 0.958802223  16 4.62159061 1.82634306  16 3.88091111 2.5758636  16 3.02052855 3.18424606  16 2.0669806 3.632725  16 1.04967844 3.90746784  16.5 5.21972132 0.958802223  16.5 4.62159061 1.82634306  16.5 3.88091111 2.5758636  16.5 3.02052855 3.18424606  16.5 2.0669806 3.632725  16.5 1.04967844 3.90746784  17 5.21972132 0.958802223  17 4.62159061 1.82634306  17 3.88091111 2.5758636  17 3.02052855 3.18424606  17 2.0669806 3.632725  17 1.04967844 3.90746784  17.5 5.21972132 0.958802223  17.5 4.62159061 1.82634306  17.5 3.88091111 2.5758636  17.5 3.02052855 3.18424606  17.
[...]
<PointData  Vectors="f_261141-0"> 
<DataArray  type="Float64"  Name="f_261141-0"  NumberOfComponents="3" format="ascii">0.0000000000000000e+00 0.0000000000000000e+00 0.0000000000000000e+00  0.0000000000000000e+00 0.0000000000000000e+00 7.2775839702147826e-01  0.0000000000000000e+00 1.0236689797752281e+00 0.0000000000000000e+00  9.1341604896152031e+00 0.0000000000000000e+00 6.1713304949116887e-01  9.0369013327618077e+00 1.0485049645986655e+00 -2.0293918477635942e-01  9.0692369819651617e+00 0.0000000000000000e+00 -1.6978838428650889e-01  0.0000000000000000e+00 0.0000000000000000e+00 1.8036967362195852e-01  0.0000000000000000e+00 0.0000000000000000e+00 3.6324090828208583e-01  0.0000000000000000e+00 0.0000000000000000e+00 5.4684766169043220e-01  0.0000000000000000e+00 1.9247360949069414e-01 7.1028322670427457e-01  0.0000000000000000e+00 3.7657276232343795e-01 6.5843398847043499e-01  0.0000000000000000e+00 5.4910846504811472e-01 5.7656475721542255e-01  0.0000000000000000e+00 7.0439315610222619e-01 4.6594748669468466e-01  0.0000000000000000e+00 8.3787347619213437e-01 3.2969831166772545e-01  0.0000000000000000e+00 9.4542203310900519e-01 1.7298561550939104e-01  0.0000000000000000e+00 8.5374026602892505e-01 0.0000000000000000e+00  0.0000000000000000e+00 6.8353178742600296e-01 0.0000000000000000e+00  0.0000000000000000e+00 5.1325985923748862e-01 0.0000000000000000e+00  0.0000000000000000e+00 3.4273211768142647e-01 0.0000000000000000e+00  0.0000000000000000e+00 1.7161819636885808e-01 0.0000000000000000e+00  9.0738778850854310e-02 0.0000000000000000e+00 7.2786012055110894e-01  1.8159522985869414e-01 0.0000000000000000e+00 7.2789011154336514e-01  2.7244656323918143e-01 0.0000000000000000e+00 7.2796994912876722e-01  3.6338205539696650e-01 0.0000000000000000e+00 7.2776754738369731e-01  4.5398925796536310e-01 0.0000000000000000e+00 7.2809748493122650e-01  5.4499486484107984e-01 0.0000000000000000e+00 7.2760371917211397e-01  6.3564910494807503e-01 0.0000000000000000e+00 7.2749858166685577e-01  7.2665538476308789e-01 0.0000000000000000e+00 7.2691269498204203e-01  8.1747232911754264e-01 0.0000000000000000e+00 7.2643579391011526e-01  9.0826014967100843e-01 0.0000000000000000e+00 7.2584229506458398e-01  9.9897040692061156e-01 0.0000000000000000e+00 7.2557583532836645e-01  1.0897785213626598e+00 0.0000000000000000e+00 7.2549248034209857e-01  1.1806146620932603e+00 0.0000000000000000e+00 7.2517421686047878e-01  1.2716581449663145e+00 0.0000000000000000e+00 7.2435381974539848e-01  1.3622397799679338e+00 0.0000000000000000e+00 7.2418703135933082e-01  1.4532682683866480e+00 0.0000000000000000e+00 7.2354924398335418e-01  1.5440697200276523e+00 0.0000000000000000e+00 7.2295430645304937e-01  1.6349084917483681e+00 0.0000000000000000e+00 7.2225893647961703e-01  1.7256366404096251e+00 0.0000000000000000e+00 7.2184263759427092e-01  1.8163843986529247e+00 0.0000000000000000e+00 7.2132183359625535e-01  1.9071482220984555e+00 0.0000000000000000e+00 7.2105224204585672e-01  1.9978841889372436e+00 0.0000000000000000e+00 7.2013044762193346e-01  2.0887569255168081e+00 0.0000000000000000e+00 7.1961494754381161e-01  2.1795921595452379e+00 0.0000000000000000e+00 7.1875253808869466e-01  2.2702802661126067e+00 0.0000000000000000e+00 7.1827442318759815e-01  2.3612495322423879e+00 0.0000000000000000e+00 7.1718099557421267e-01  2.4521281800873633e+00 0.0000000000000000e+00 7.1617701443984949e-01  2.5428154522699495e+00 0.0000000000000000e+00 7.1557015179446815e-01  2.6336995012747946e+00 0.0000000000000000e+00 7.1456114843319574e-01  2.7246509735622380e+00 0.0000000000000000e+00 7.1321839845590773e-01  2.8150261033295725e+00 0.0000000000000000e+00 7.1319729687186040e-01  2.9057236195018072e+00 0.0000000000000000e+00 7.1190846880804293e-01  2.9966000393294054e+00 0.0000000000000000e+00 7.1068941971607658e-01  3.0874786264051495e+00 0.0000000000000000e+00 7.0947685929610815e-01  3.1784548179360539e+00 0.0000000000000000e+00 7.0823459596663285e-01  3.2693330951766666e+00 0.0000000000000000e+00 7.0714389819569856e-01  3.3602714683917165e+00 0.0000000000000000e+00 7.0597431428198709e-01  3.4510042457339321e+00 0.0000000000000000e+00 7.0512072227574485e-01  3.5419421897680667e+00 0.0000000000000000e+00 7.0353560410514626e-01  3.6326983386963567e+00 0.0000000000000000e+00 7.0246916594434716e-01  3.7232829637424816e+00 0.0000000000000000e+00 7.0149450563163807e-01  3.8142640457221559e+00 0.0000000000000000e+00 7.0022107266407652e-01  3.9049343667937118e+00 0.0000000000000000e+00 6.9897635330783547e-01  3.9960288910121946e+00 0.0000000000000000e+00 6.9696730757501335e-01  4.0866335866210335e+00 0.0000000000000000e+00 6.9576699753679117e-01  4.1773940423091815e+00 0.0000000000000000e+00 6.9425124919683734e-01  4.2681732353494697e+00 0.0000000000000000e+00 6.9303648185492228e-01  4.3590743759263253e+00 0.0000000000000000e+00 6.9138733401461672e-01  4.4498656460216566e+00 0.0000000000000000e+00 6.8993645700242656e-01  4.5407600550734859e+00 0.0000000000000000e+00 6.8826081655052029e-01  4.6316498309791685e+00 0.0000000000000000e+00 6.8644960454039894e-01  4.7223407559614898e+00 0.0000000000000000e+00 6.8509804609750102e-01  4.8132799584809165e+00 0.0000000000000000e+00 6.8306519032238877e-01  4.9039453952164553e+00 0.0000000000000000e+00 6.8164718452745687e-01  4.9947864626348304e+00 0.0000000000000000e+00 6.7978126878488387e-01  5.0858144029169869e+00 0.0000000000000000e+00 6.7799033695848576e-01  5.1765937903758630e+00 0.0000000000000000e+00 6.7607712621784566e-01  5.2673075125200741e+00 0.0000000000000000e+00 6.7432696225094502e-01  5.3580988011049575e+00 0.0000000000000000e+00 6.7272188872111260e-01  5.4490689251017290e+00 0.0000000000000000e+00 6.7048685903991334e-01  5.5398896110663172e+00 0.0000000000000000e+00 6.6821558725051422e-01  5.6305819544359155e+00 0.0000000000000000e+00 6.6658526206990332e-01  5.7214589050550684e+00 0.0000000000000000e+00 6.6438077618480251e-01  5.8123085977446411e+00 0.0000000000000000e+00 6.6223058128015988e-01  5.9029848039576676e+00 0.0000000000000000e+00 6.6062709667229602e-01  5.9939694245202491e+00 0.0000000000000000e+00 6.5831932655509395e-01  6.0848416146455175e+00 0.0000000000000000e+00 6.5625425211163368e-01  6.1755301549330106e+00 0.0000000000000000e+00 6.5414303214497305e-01  6.2664459802412020e+00 0.0000000000000000e+00 6.5170871334610525e-01  6.3571831121468714e+00 0.0000000000000000e+00 6.4939447999136402e-01  6.4479306544587072e+00 0.0000000000000000e+00 6.4729685715345442e-01  6.5387299923089941e+00 0.0000000000000000e+00 6.4478091542473825e-01  6.6296822703201252e+00 0.0000000000000000e+00 6.4211000461149037e-01  6.7205127632095971e+00 0.0000000000000000e+00 6.3971404232430618e-01  6.8113715525512148e+00 0.0000000000000000e+00 6.3737494145619644e-01  6.9020008454962909e+00 0.0000000000000000e+00 6.3509222365630202e-01  6.9929197729837345e+00 0.0000000000000000e+00 6.3248530509663725e-01  7.0836233877965995e+00 0.0000000000000000e+00 6.3020424851304802e-01  7.1746586301401409e+00 0.0000000000000000e+00 6.2714221006803672e-01  7.2654093661547643e+00 0.0000000000000000e+00 6.2469562304327253e-01  7.3560608953873867e+00 0.0000000000000000e+00 6.2243014908709648e-01  7.4470364498100432e+00 0.0000000000000000e+00 6.1962820224476622e-01  7.5379145271457437e+00 0.0000000000000000e+00 6.1691242039106775e-01  7.6283528978545609e+00 0.0000000000000000e+00 6.1502601352336939e-01  7.7193065743286740e+00 0.0000000000000000e+00 6.1207024569183710e-01  7.8098746608928371e+00 0.0000000000000000e+00 6.1010135551050282e-01  7.9004401160063775e+00 0.0000000000000000e+00 6.0853650782389135e-01  7.9912711512777204e+00 0.0000000000000000e+00 6.0625843120998602e-01  8.0821672755425578e+00 0.0000000000000000e+00 6.0419942688797490e-01  8.1727371363280756e+00 0.0000000000000000e+00 6.0366138981855955e-01  8.2640810538956799e+00 0.0000000000000000e+00 6.0187181345671126e-01  8.3546551995189766e+00 0.0000000000000000e+00 6.0246776703527272e-01  8.4463223114130983e+00 0.0000000000000000e+00 6.0197140709510044e-01  8.5381086664513575e+00 0.0000000000000000e+00 6.0511720623933274e-01  8.6312243114774621e+00 0.0000000000000000e+00 6.0921090516118848e-01  8.7266691428307759e+00 0.0000000000000000e+00 6.1531656154905212e-01  8.8250304245819873e+00 0.0000000000000000e+00 6.2149212410006438e-01  8.9264133689620362e+00 0.0000000000000000e+00 6.2390362661627885e-01  9.0303182062321277e+00 0.0000000000000000e+00 6.2217467397067083e-01  9.1273705589107248e+00 2.1903989801202695e-01 5.9762109745733361e-01  9.1168627802200284e+00 4.2409576150870026e-01 5.3045531077209684e-01  9.1028369780478577e+00 6.0761503036840181e-01 4.2850346572495573e-01  9.0868468527450315e+00 7.6233253215259489e-01 2.9735662136660296e-01  9.0699655509035360e+00 8.8913671504620284e-01 1.4483375340782639e-01  9.0521821550066583e+00 9.8507115401068812e-01 -2.3672905086686482e-02  8.9462371967324561e+00 1.0439710063367931e+00 -1.9619958872242083e-01  8.8557549837584411e+00 1.0400174715949198e+00 -1.8859362828592877e-01  8.7656532642724425e+00 1.0367189833638848e+00 -1.8136147308803330e-01  8.6755136768249077e+00 1.0329757394062435e+00 -1.7375200481729555e-01  8.5859884887820712e+00 1.0298446769604797e+00 -1.6758937415132472e-01  8.4968631433705823e+00 1.0278040112713196e+00 -1.6197328018109558e-01  8.4078951789671468e+00 1.0261654938429117e+00 -1.5649799086587549e-01  8.3189299023920533e+00 1.0251924804636925e+00 -1.5136487504425258e-01  8.2296916047298119e+00 1.0242157143684638e+00 -1.4601094894604405e-01  8.1406282365795466e+00 1.0235265519610104e+00 -1.4128894943608689e-01  8.0512815158485456e+00 1.0229998382333838e+00 -1.3644201776973849e-01  7.9618436655076517e+00 1.0230308707401858e+00 -1.3242463203335877e-01  7.8722195017906209e+00 1.0226846438953854e+00 -1.2839456049251699e-01  7.7824786843615890e+00 1.0223958640282047e+00 -1.2451893346805629e-01  7.6927581154440112e+00 1.0223996621091089e+00 -1.2109198983525132e-01  7.6028904994921662e+00 1.0224575563171026e+00 -1.1731188519009912e-01  7.5129947884729180e+00 1.0226588118389193e+00 -1.1375747822814469e-01  7.4229636264993379e+00 1.0228923889401629e+00 -1.1049163628280759e-01  7.3328967524633732e+00 1.0230008933830812e+00 -1.0731728670327854e-01  7.2427061105142494e+00 1.0232749701799331e+00 -1.0419784335238201e-01  7.1524798669926914e+00 1.0234194463200803e+00 -1.0117298120035650e-01  7.0621805857036897e+00 1.0235415553186817e+00 -9.8200282350263110e-02  6.9718224163886768e+00 1.0237092967822625e+00 -9.5401689792885311e-02  6.8814540045070176e+00 1.0236365058250791e+00 -9.2667896791327531e-02  6.7910593531805157e+00 1.0237871771899738e+00 -9.0088156152287741e-02  6.7006394774383349e+00 1.0238862976510847e+00 -8.7537024911859468e-02  6.6101686140005631e+00 1.0239829673180161e+00 -8.5049825156867667e-02  6.5196864284259419e+00 1.0239706574787366e+00 -8.2586674647233030e-02  6.4291910185520917e+00 1.0241080729060639e+00 -8.0240984689552763e-02  6.3386793063371609e+00 1.0240762815577662e+00 -7.7840363125204315e-02  6.2481493673239763e+00 1.0241350201549935e+00 -7.5536917401149067e-02  6.1576207965225311e+00 1.0242322753046247e+00 -7.3308631929460438e-02  6.0670875239797368e+00 1.0241487855307536e+00 -7.1079439784660192e-02  5.9765343484131108e+00 1.0241055773402925e+00 -6.8907798103541001e-02  5.8860018266041703e+00 1.0240968481957140e+00 -6.6787690674244338e-02  5.7954609254240230e+00 1.0240589152285646e+00 -6.4671482482713427e-02  5.7049344896926106e+00 1.0240251270270166e+00 -6.2575818310624171e-02  5.6143883805527350e+00 1.0241446263052643e+00 -6.0527612196183841e-02  5.5238389047056069e+00 1.0242432903345287e+00 -5.8550033613757407e-02  5.4333000708728418e+00 1.0241159331893670e+00 -5.6556581419576070e-02  5.3427484345216518e+00 1.0240892391335932e+00 -5.4621099524705473e-02  5.2522004766977766e+00 1.0241574643742768e+00 -5.2749963484576487e-02  5.1616751194922372e+00 1.0240374497378808e+00 -5.0821883485669704e-02  5.0711276623704657e+00 1.0240892133427546e+00 -4.8978592629078659e-02  4.9805817615722816e+00 1.0241430684090933e+00 -4.7190828490383072e-02  4.8900405553576771e+00 1.0241132858645545e+00 -4.5376789477696071e-02  4.7995327166522594e+00 1.0241196866323528e+00 -4.3631543425906784e-02  4.7089937174005723e+00 1.0241825577746795e+00 -4.1937459480008148e-02  4.6184497497059729e+00 1.0241115741560949e+00 -4.0178586176383181e-02  4.5278743533605832e+00 1.0241544809267122e+00 -3.8450217405942455e-02  4.4373286468027695e+00 1.0241953887486202e+00 -3.6890001305253980e-02  4.3467501693687369e+00 1.0242507905339755e+00 -3.5418566340935209e-02  4.2561661930218362e+00 1.0241081627211355e+00 -3.3909278111975132e-02  4.1656782652218149e+00 1.0241913572948784e+00 -3.2372947697354930e-02  4.0751476092828742e+00 1.0241881041787770e+00 -3.0995072466541398e-02  3.9845836936457086e+00 1.0241933140131740e+00 -2.9557346522715348e-02  3.8940260324989016e+00 1.0241271633152971e+00 -2.8104972807562426e-02  3.8034713549873613e+00 1.0242049660948715e+00 -2.6771409657831237e-02  3.7129452538394423e+00 1.0241804588501164e+00 -2.5499120104147691e-02  3.6224346154747016e+00 1.0241841823683409e+00 -2.4269395894576194e-02  3.5318723822843503e+00 1.0242844656101542e+00 -2.3091048591936444e-02  3.4413250858007358e+00 1.0241827158653367e+00 -2.1895219395543931e-02  3.3507444489570073e+00 1.0241459594886770e+00 -2.0729156647661978e-02  3.2601875933896309e+00 1.0241881491561589e+00 -1.9656577057156514e-02  3.1696247849396304e+00 1.0241370936029190e+00 -1.8545071225879273e-02  3.0790573207164869e+00 1.0239586679352544e+00 -1.7411090131951686e-02  2.9885144489452471e+00 1.0239962095422561e+00 -1.6507615899362692e-02  2.8979600493565267e+00 1.0239289481293967e+00 -1.5529520694833635e-02  2.8074186410795665e+00 1.0239803314966029e+00 -1.4562397887752073e-02  2.7168814961796297e+00 1.0239895419772918e+00 -1.3584234748444038e-02  2.6263147350612082e+00 1.0239955837980910e+00 -1.2611708265575328e-02  2.5357358507525003e+00 1.0239963616375860e+00 -1.1699679428344914e-02  2.4451746443265865e+00 1.0240448077689317e+00 -1.0881458302171352e-02  2.3546211108770403e+00 1.0240508791476401e+00 -1.0049424010441220e-02  2.2640599933816818e+00 1.0240641982412932e+00 -9.2293364658623481e-03  2.1735181364888008e+00 1.0240018598884320e+00 -8.4261971555319188e-03  2.0829835416345213e+00 1.0239964442542488e+00 -7.7268127671900307e-03  1.9924506357187655e+00 1.0240685533390990e+00 -7.0558018655537836e-03  1.9018771085503001e+00 1.0240672991985278e+00 -6.3932715466870913e-03  1.8112965661466873e+00 1.0240072493350409e+00 -5.6692615437573882e-03  1.7207377166317561e+00 1.0240970852319162e+00 -5.0798700455634239e-03  1.6301544419613530e+00 1.0241474389241330e+00 -4.4823162299490885e-03  1.5395864782252118e+00 1.0240074924891933e+00 -3.8508423952223719e-03  1.4490208140104315e+00 1.0240316622903374e+00 -3.3909497353625277e-03  1.3584825802694411e+00 1.0240053878216300e+00 -2.9660917052475250e-03  1.2679355309522853e+00 1.0240256020269227e+00 -2.5232702494969055e-03  1.1773848264665938e+00 1.0239841006458248e+00 -2.0242195747313253e-03  1.0868347405152126e+00 1.0240856972541774e+00 -1.7034074054505736e-03  9.9627849182848660e-01 1.0241096669291077e+00 -1.3683996311741021e-03  9.0571188975675532e-01 1.0241044446694130e+00 -1.0488499708775668e-03  8.1512575607705073e-01 1.0240641914506863e+00 -7.8532207373168772e-04  7.2455867511607319e-01 1.0240365691933004e+00 -5.9067766767388846e-04  6.3397414546111730e-01 1.0240300947305243e+00 -4.1715005682418785e-04  5.4337375897184093e-01 1.0239674923246715e+00 -2.0615875322957489e-04  4.5281121549214370e-01 1.0239054056278143e+00 -8.5766956511039853e-05  3.6224005890112915e-01 1.0239456599408538e+00 -8.4170704462544128e-05  2.7167330102372939e-01 1.0237929270500201e+00 -2.5983915934008741e-05  1.8110917773790466e-01 1.0237602060038913e+00 0.0000000000000000e+00  9.0548342449041433e-02 1.0236322033799730e+00 0.0000000000000000e+00  9.0440031960113387e+00 8.7834634987696159e-01 -1.9197077363079032e-01  9.0505154518425730e+00 7.0520734086489922e-01 -1.8447984629803688e-01  9.0579771528661528e+00 5.3279930427456756e-01 -1.7844619950698271e-01  9.0611918231254798e+00 3.5428410564803370e-01 -1.7625154324798331e-01  9.0662302642414581e+00 1.7677916549057313e-01 -1.7240538294749597e-01  8.9789539912655290e+00 0.0000000000000000e+00 -1.6263309053555217e-01  8.8879409447506497e+00 0.0000000000000000e+00 -1.5724728998218451e-01  8.7963259815047472e+00 0.0000000000000000e+00 -1.5021950563481226e-01  8.7044594331852139e+00 0.0000000000000000e+00 -1.4531041083865867e-01  8.6132449060810394e+00 0.0000000000000000e+00 -1.4218954977621831e-01  8.5215846304550436e+00 0.0000000000000000e+00 -1.3819791235375464e-01  8.4305148916351236e+00 0.0000000000000000e+00 -1.3548985748894474e-01  8.3390268832013259e+00 0.0000000000000000e+00 -1.3300104275610275e-01  8.2474003836726606e+00 0.0000000000000000e+00 -1.2930778289208078e-01  8.1561986331729042e+00 0.0000000000000000e+00 -1.2779598818442925e-01  8.0649419684757682e+00 0.0000000000000000e+00 -1.2568932819817408e-01  7.9738608198729635e+00 0.0000000000000000e+00 -1.2302144148932347e-01  7.8827639683486908e+00 0.0000000000000000e+00 -1.2023771221316319e-01  7.7915194957873721e+00 0.0000000000000000e+00 -1.1744346772665348e-01  7.7005257503546511e+00 0.0000000000000000e+00 -1.1557960699860727e-01  7.6096640394965842e+00 0.0000000000000000e+00 -1.1324753079834383e-01  7.5188443274559367e+00 0.0000000000000000e+00 -1.1063924073418367e-01  7.4277614739878617e+00 0.0000000000000000e+00 -1.0780948287130203e-01  7.3367975735165833e+00 0.0000000000000000e+00 -1.0604211488078846e-01  7.2460355613586991e+00 0.0000000000000000e+00 -1.0339742301018975e-01  7.1551792048588672e+00 0.0000000000000000e+00 -1.0065100222223188e-01  7.0645575833600507e+00 0.0000000000000000e+00 -9.8520043420963377e-02  6.9737636791568178e+00 0.0000000000000000e+00 -9.5696643141896118e-02  6.8829641865723463e+00 0.0000000000000000e+00 -9.3562392165683253e-02  6.7924029578976599e+00 0.0000000000000000e+00 -9.1161787589036744e-02  6.7017645897672518e+00 0.0000000000000000e+00 -8.8545283524567031e-02  6.6110250027803668e+00 0.0000000000000000e+00 -8.5982423911733746e-02  6.5203541212597393e+00 0.0000000000000000e+00 -8.4031329766709462e-02  6.4296979748101624e+00 0.0000000000000000e+00 -8.1552330118164623e-02  6.3390585236534251e+00 0.0000000000000000e+00 -7.9530315801226395e-02  6.2486157953872796e+00 0.0000000000000000e+00 -7.7445629889308643e-02  6.1580787168169531e+00 0.0000000000000000e+00 -7.5086922853977417e-02  6.0674305511615243e+00 0.0000000000000000e+00 -7.2382153224652079e-02  5.9767868578787109e+00 0.0000000000000000e+00 -7.0495800056635013e-02  5.8861220081224683e+00 0.0000000000000000e+00 -6.7934627584185517e-02  5.7956606759945641e+00 0.0000000000000000e+00 -6.6326737895051988e-02  5.7050624383969906e+00 0.0000000000000000e+00 -6.4010687323325113e-02  5.6143343496325473e+00 0.0000000000000000e+00 -6.1777011435428006e-02  5.5237482294127869e+00 0.0000000000000000e+00 -6.0028321914252336e-02  5.4332344954038048e+00 0.0000000000000000e+00 -5.7749366431784806e-02  5.3428028980860844e+00 0.0000000000000000e+00 -5.6197464720255365e-02  5.2523685667497197e+00 0.0000000000000000e+00 -5.4049225944137261e-02  5.1617272545830888e+00 0.0000000000000000e+00 -5.1912916865139533e-02  5.0713304125819505e+00 0.0000000000000000e+00 -5.0573552404601617e-02  4.9808600584208707e+00 0.0000000000000000e+00 -4.8747913847098499e-02  4.8902367950461256e+00 0.0000000000000000e+00 -4.6538695369315548e-02  4.7997089169597569e+00 0.0000000000000000e+00 -4.5166158411916658e-02  4.7090828170873795e+00 0.0000000000000000e+00 -4.3318295667080980e-02  4.6184526341622947e+00 0.0000000000000000e+00 -4.1961711191726425e-02  4.5279643828757701e+00 0.0000000000000000e+00 -4.0308763835047452e-02  4.4374348714110408e+00 0.0000000000000000e+00 -3.8821388557153759e-02  4.3468221179386672e+00 0.0000000000000000e+00 -3.6937291470459238e-02  4.2563706438510076e+00 0.0000000000000000e+00 -3.6006