<?xml version="1.0"?>
<VTKFile type="UnstructuredGrid"  version="0.1"  >
<UnstructuredGrid>
<Piece  NumberOfPoints="3069" NumberOfCells="12882">
<Points>
<DataArray  type="Float64"  NumberOfComponents="3"  format="ascii">0 0 0  0 0 4  0 5.65685415 0  50 0 4  50 5.65685415 0  50 0 0  0 0 1  0 0 2  0 0 3  0 1.04967844 3.90746784  0 2.0669806 3.632725  0 3.02052855 3.18424606  0 3.88091111 2.5758636  0 4.62159061 1.82634306  0 5.21972132 0.958802283  0 4.71404505 0  0 3.77123618 0  0 2.82842708 0  0 1.88561809 0  0 0.942809045 0  0.5 0 4  1 0 4  1.5 0 4  2 0 4  2.5 0 4  3 0 4  3.5 0 4  4 0 4  4.5 0 4  5 0 4  5.5 0 4  6 0 4  6.5 0 4  7 0 4  7.5 0 4  8 0 4  8.5 0 4  9 0 4  9.5 0 4  10 0 4  10.5 0 4  11 0 4  11.5 0 4  12 0 4  12.5 0 4  13 0 4  13.5 0 4  14 0 4  14.5 0 4  15 0 4  15.5 0 4  16 0 4  16.5 0 4  17 0 4  17.5 0 4  18 0 4  18.5 0 4  19 0 4  19.5 0 4  20 0 4  20.5 0 4  21 0 4  21.5 0 4  22 0 4  22.5 0 4  23 0 4  23.5 0 4  24 0 4  24.5 0 4  25 0 4  25.5 0 4  26 0 4  26.5 0 4  27 0 4  27.5 0 4  28 0 4  28.5 0 4  29 0 4  29.5 0 4  30 0 4  30.5 0 4  31 0 4  31.5 0 4  32 0 4  32.5 0 4  33 0 4  33.5 0 4  34 0 4  34.5 0 4  35 0 4  35.5 0 4  36 0 4  36.5 0 4  37 0 4  37.5 0 4  38 0 4  38.5 0 4  39 0 4  39.5 0 4  40 0 4  40.5 0 4  41 0 4  41.5 0 4  42 0 4  42.5 0 4  43 0 4  43.5 0 4  44 0 4  44.5 0 4  45 0 4  45.5 0 4  46 0 4  46.5 0 4  47 0 4  47.5 0 4  48 0 4  48.5 0 4  49 0 4  49.5 0 4  50 1.04967844 3.90746784  50 2.0669806 3.632725  50 3.02052855 3.18424606  50 3.88091111 2.5758636  50 4.62159061 1.82634306  50 5.21972132 0.958802283  49.5 5.65685415 0  49 5.65685415 0  48.5 5.65685415 0  48 5.65685415 0  47.5 5.65685415 0  47 5.65685415 0  46.5 5.65685415 0  46 5.65685415 0  45.5 5.65685415 0  45 5.65685415 0  44.5 5.65685415 0  44 5.65685415 0  43.5 5.65685415 0  43 5.65685415 0  42.5 5.65685415 0  42 5.65685415 0  41.5 5.65685415 0  41 5.65685415 0  40.5 5.65685415 0  40 5.65685415 0  39.5 5.65685415 0  39 5.65685415 0  38.5 5.65685415 0  38 5.65685415 0  37.5 5.65685415 0  37 5.65685415 0  36.5 5.65685415 0  36 5.65685415 0  35.5 5.65685415 0  35 5.65685415 0  34.5 5.65685415 0  34 5.65685415 0  33.5 5.65685415 0  33 5.65685415 0  32.5 5.65685415 0  32 5.65685415 0  31.5 5.65685415 0  31 5.65685415 0  30.5 5.65685415 0  30 5.65685415 0  29.5 5.65685415 0  29 5.65685415 0  28.5 5.65685415 0  28 5.65685415 0  27.5 5.65685415 0  27 5.65685415 0  26.5 5.65685415 0  26 5.65685415 0  25.5 5.65685415 0  25 5.65685415 0  24.5 5.65685415 0  24 5.65685415 0  23.5 5.65685415 0  23 5.65685415 0  22.5 5.65685415 0  22 5.65685415 0  21.5 5.65685415 0  21 5.65685415 0  20.5 5.65685415 0  20 5.65685415 0  19.5 5.65685415 0  19 5.65685415 0  18.5 5.65685415 0  18 5.65685415 0  17.5 5.65685415 0  17 5.65685415 0  16.5 5.65685415 0  16 5.65685415 0  15.5 5.65685415 0  15 5.65685415 0  14.5 5.65685415 0  14 5.65685415 0  13.5 5.65685415 0  13 5.65685415 0  12.5 5.65685415 0  12 5.65685415 0  11.5 5.65685415 0  11 5.65685415 0  10.5 5.65685415 0  10 5.65685415 0  9.5 5.65685415 0  9 5.65685415 0  8.5 5.65685415 0  8 5.65685415 0  7.5 5.65685415 0  7 5.65685415 0  6.5 5.65685415 0  6 5.65685415 0  5.5 5.65685415 0  5 5.65685415 0  4.5 5.65685415 0  4 5.65685415 0  3.5 5.65685415 0  3 5.65685415 0  2.5 5.65685415 0  2 5.65685415 0  1.5 5.65685415 0  1 5.65685415 0  0.5 5.65685415 0  50 4.71404505 0  50 3.77123618 0  50 2.82842708 0  50 1.88561809 0  50 0.942809045 0  49.5 0 0  49 0 0  48.5 0 0  48 0 0  47.5 0 0  47 0 0  46.5 0 0  46 0 0  45.5 0 0  45 0 0  44.5 0 0  44 0 0  43.5 0 0  43 0 0  42.5 0 0  42 0 0  41.5 0 0  41 0 0  40.5 0 0  40 0 0  39.5 0 0  39 0 0  38.5 0 0  38 0 0  37.5 0 0  37 0 0  36.5 0 0  36 0 0  35.5 0 0  35 0 0  34.5 0 0  34 0 0  33.5 0 0  33 0 0  32.5 0 0  32 0 0  31.5 0 0  31 0 0  30.5 0 0  30 0 0  29.5 0 0  29 0 0  28.5 0 0  28 0 0  27.5 0 0  27 0 0  26.5 0 0  26 0 0  25.5 0 0  25 0 0  24.5 0 0  24 0 0  23.5 0 0  23 0 0  22.5 0 0  22 0 0  21.5 0 0  21 0 0  20.5 0 0  20 0 0  19.5 0 0  19 0 0  18.5 0 0  18 0 0  17.5 0 0  17 0 0  16.5 0 0  16 0 0  15.5 0 0  15 0 0  14.5 0 0  14 0 0  13.5 0 0  13 0 0  12.5 0 0  12 0 0  11.5 0 0  11 0 0  10.5 0 0  10 0 0  9.5 0 0  9 0 0  8.5 0 0  8 0 0  7.5 0 0  7 0 0  6.5 0 0  6 0 0  5.5 0 0  5 0 0  4.5 0 0  4 0 0  3.5 0 0  3 0 0  2.5 0 0  2 0 0  1.5 0 0  1 0 0  0.5 0 0  50 0 1  50 0 2  50 0 3  0 2.33524275 0.893602192  0 2.87561393 1.93323028  0 4.2367816 0.876864135  0 2.00050235 2.65534091  0 0.981494486 2.34323239  0 3.78543234 1.61830366  0 3.30545568 0.887000024  0 0.812916458 1.58408713  0 1.71948838 1.71268857  0 1.28267908 0.8650629520000001  0 1.21973121 3.10775328  0.5 5.21972132 0.958802223  0.5 4.62159061 1.82634306  0.5 3.88091111 2.5758636  0.5 3.02052855 3.18424606  0.5 2.0669806 3.632725  0.5 1.04967844 3.90746784  1 5.21972132 0.958802223  1 4.62159061 1.82634306  1 3.88091111 2.5758636  1 3.02052855 3.18424606  1 2.0669806 3.632725  1 1.04967844 3.90746784  1.5 5.21972132 0.958802223  1.5 4.62159061 1.82634306  1.5 3.88091111 2.5758636  1.5 3.02052855 3.18424606  1.5 2.0669806 3.632725  1.5 1.04967844 3.90746784  2 5.21972132 0.958802223  2 4.62159061 1.82634306  2 3.88091111 2.5758636  2 3.02052855 3.18424606  2 2.0669806 3.632725  2 1.04967844 3.90746784  2.5 5.21972132 0.958802223  2.5 4.62159061 1.82634306  2.5 3.88091111 2.5758636  2.5 3.02052855 3.18424606  2.5 2.0669806 3.632725  2.5 1.04967844 3.90746784  3 5.21972132 0.958802223  3 4.62159061 1.82634306  3 3.88091111 2.5758636  3 3.02052855 3.18424606  3 2.0669806 3.632725  3 1.04967844 3.90746784  3.5 5.21972132 0.958802223  3.5 4.62159061 1.82634306  3.5 3.88091111 2.5758636  3.5 3.02052855 3.18424606  3.5 2.0669806 3.632725  3.5 1.04967844 3.90746784  4 5.21972132 0.958802223  4 4.62159061 1.82634306  4 3.88091111 2.5758636  4 3.02052855 3.18424606  4 2.0669806 3.632725  4 1.04967844 3.90746784  4.5 5.21972132 0.958802223  4.5 4.62159061 1.82634306  4.5 3.88091111 2.5758636  4.5 3.02052855 3.18424606  4.5 2.0669806 3.632725  4.5 1.04967844 3.90746784  5 5.21972132 0.958802223  5 4.62159061 1.82634306  5 3.88091111 2.5758636  5 3.02052855 3.18424606  5 2.0669806 3.632725  5 1.04967844 3.90746784  5.5 5.21972132 0.958802223  5.5 4.62159061 1.82634306  5.5 3.88091111 2.5758636  5.5 3.02052855 3.18424606  5.5 2.0669806 3.632725  5.5 1.04967844 3.90746784  6 5.21972132 0.958802223  6 4.62159061 1.82634306  6 3.88091111 2.5758636  6 3.02052855 3.18424606  6 2.0669806 3.632725  6 1.04967844 3.90746784  6.5 5.21972132 0.958802223  6.5 4.62159061 1.82634306  6.5 3.88091111 2.5758636  6.5 3.02052855 3.18424606  6.5 2.0669806 3.632725  6.5 1.04967844 3.90746784  7 5.21972132 0.958802223  7 4.62159061 1.82634306  7 3.88091111 2.5758636  7 3.02052855 3.18424606  7 2.0669806 3.632725  7 1.04967844 3.90746784  7.5 5.21972132 0.958802223  7.5 4.62159061 1.82634306  7.5 3.88091111 2.5758636  7.5 3.02052855 3.18424606  7.5 2.0669806 3.632725  7.5 1.04967844 3.90746784  8 5.21972132 0.958802223  8 4.62159061 1.82634306  8 3.88091111 2.5758636  8 3.02052855 3.18424606  8 2.0669806 3.632725  8 1.04967844 3.90746784  8.5 5.21972132 0.958802223  8.5 4.62159061 1.82634306  8.5 3.88091111 2.5758636  8.5 3.02052855 3.18424606  8.5 2.0669806 3.632725  8.5 1.04967844 3.90746784  9 5.21972132 0.958802223  9 4.62159061 1.82634306  9 3.88091111 2.5758636  9 3.02052855 3.18424606  9 2.0669806 3.632725  9 1.04967844 3.90746784  9.5 5.21972132 0.958802223  9.5 4.62159061 1.82634306  9.5 3.88091111 2.5758636  9.5 3.02052855 3.18424606  9.5 2.0669806 3.632725  9.5 1.04967844 3.90746784  10 5.21972132 0.958802223  10 4.62159061 1.82634306  10 3.88091111 2.5758636  10 3.02052855 3.18424606  10 2.0669806 3.632725  10 1.04967844 3.90746784  10.5 5.21972132 0.958802223  10.5 4.62159061 1.82634306  10.5 3.88091111 2.5758636  10.5 3.02052855 3.18424606  10.5 2.0669806 3.632725  10.5 1.04967844 3.90746784  11 5.21972132 0.958802223  11 4.62159061 1.82634306  11 3.88091111 2.5758636  11 3.02052855 3.18424606  11 2.0669806 3.632725  11 1.04967844 3.90746784  11.5 5.21972132 0.958802223  11.5 4.62159061 1.82634306  11.5 3.88091111 2.5758636  11.5 3.02052855 3.18424606  11.5 2.0669806 3.632725  11.5 1.04967844 3.90746784  12 5.21972132 0.958802223  12 4.62159061 1.82634306  12 3.88091111 2.5758636  12 3.02052855 3.18424606  12 2.0669806 3.632725  12 1.04967844 3.90746784  12.5 5.21972132 0.958802223  12.5 4.62159061 1.82634306  12.5 3.88091111 2.5758636  12.5 3.02052855 3.18424606  12.5 2.0669806 3.632725  12.5 1.04967844 3.90746784  13 5.21972132 0.958802223  13 4.62159061 1.82634306  13 3.88091111 2.5758636  13 3.02052855 3.18424606  13 2.0669806 3.632725  13 1.04967844 3.90746784  13.5 5.21972132 0.958802223  13.5 4.62159061 1.82634306  13.5 3.88091111 2.5758636  13.5 3.02052855 3.18424606  13.5 2.0669806 3.632725  13.5 1.04967844 3.90746784  14 5.21972132 0.958802223  14 4.62159061 1.82634306  14 3.88091111 2.5758636  14 3.02052855 3.18424606  14 2.0669806 3.632725  14 1.04967844 3.90746784  14.5 5.21972132 0.958802223  14.5 4.62159061 1.82634306  14.5 3.88091111 2.5758636  14.5 3.02052855 3.18424606  14.5 2.0669806 3.632725  14.5 1.04967844 3.90746784  15 5.21972132 0.958802223  15 4.62159061 1.82634306  15 3.88091111 2.5758636  15 3.02052855 3.18424606  15 2.0669806 3.632725  15 1.04967844 3.90746784  15.5 5.21972132 0.958802223  15.5 4.62159061 1.82634306  15.5 3.88091111 2.5758636  15.5 3.02052855 3.18424606  15.5 2.0669806 3.632725  15.5 1.04967844 3.90746784  16 5.21972132 0.958802223  16 4.62159061 1.82634306  16 3.88091111 2.5758636  16 3.02052855 3.18424606  16 2.0669806 3.632725  16 1.04967844 3.90746784  16.5 5.21972132 0.958802223  16.5 4.62159061 1.82634306  16.5 3.88091111 2.5758636  16.5 3.02052855 3.18424606  16.5 2.0669806 3.632725  16.5 1.04967844 3.90746784  17 5.21972132 0.958802223  17 4.62159061 1.82634306  17 3.88091111 2.5758636  17 3.02052855 3.18424606  17 2.0669806 3.632725  17 1.04967844 3.90746784  17.5 5.21972132 0.958802223  17.5 4.62159061 1.82634306  17.5 3.88091111 2.5758636  17.5 3.02052855 3.18424606  17.
[...]
<PointData  Vectors="f_261141-0"> 
<DataArray  type="Float64"  Name="f_261141-0"  NumberOfComponents="3" format="ascii">0.0000000000000000e+00 0.0000000000000000e+00 0.0000000000000000e+00  0.0000000000000000e+00 0.0000000000000000e+00 1.1798458618396731e-02  0.0000000000000000e+00 6.1054533925809812e-02 0.0000000000000000e+00  1.8548746002801339e-01 0.0000000000000000e+00 1.4064938801239499e+00  4.4821163923697127e-01 4.3015227673529451e-02 1.4375635442265595e+00  4.2764298071610551e-01 0.0000000000000000e+00 1.4091041250620091e+00  0.0000000000000000e+00 0.0000000000000000e+00 1.4662531043645666e-02  0.0000000000000000e+00 0.0000000000000000e+00 9.4823465896089094e-03  0.0000000000000000e+00 0.0000000000000000e+00 2.5367303936520997e-03  0.0000000000000000e+00 -6.0734659331998639e-03 1.3120861996238844e-02  0.0000000000000000e+00 2.9655440483758598e-03 2.7394635975002687e-02  0.0000000000000000e+00 1.2264812938832022e-02 2.7205189516426042e-02  0.0000000000000000e+00 2.2319148124134283e-02 2.5284002689321093e-02  0.0000000000000000e+00 2.9367415304993136e-02 2.8223528160281723e-02  0.0000000000000000e+00 4.1950685828774543e-02 1.7332395856795614e-02  0.0000000000000000e+00 3.9135080492023550e-02 0.0000000000000000e+00  0.0000000000000000e+00 2.9686031829617678e-02 0.0000000000000000e+00  0.0000000000000000e+00 1.8269996625976444e-02 0.0000000000000000e+00  0.0000000000000000e+00 1.1216506772611833e-02 0.0000000000000000e+00  0.0000000000000000e+00 5.3556828985904976e-03 0.0000000000000000e+00  2.8569036970480769e-03 0.0000000000000000e+00 1.2086628107684497e-02  4.5074691854870346e-03 0.0000000000000000e+00 1.0577360977860086e-02  6.1445503226998837e-03 0.0000000000000000e+00 1.1103881448962820e-02  8.4972187106165404e-03 0.0000000000000000e+00 1.1729779755914041e-02  1.1712154778729000e-02 0.0000000000000000e+00 1.2301613320397909e-02  1.2963917872629438e-02 0.0000000000000000e+00 1.4176998312592812e-02  1.5638156278064905e-02 0.0000000000000000e+00 1.6079815200709491e-02  1.7011202361855094e-02 0.0000000000000000e+00 1.8653785917980011e-02  1.9063142161071821e-02 0.0000000000000000e+00 2.3135405387446940e-02  2.1181496026337104e-02 0.0000000000000000e+00 2.8654347154991249e-02  2.3831778243648301e-02 0.0000000000000000e+00 3.1596024946031878e-02  2.7075198556256633e-02 0.0000000000000000e+00 3.1423622643362910e-02  2.8912188130516443e-02 0.0000000000000000e+00 3.6305422762622143e-02  2.9280979208342300e-02 0.0000000000000000e+00 4.1588862282832026e-02  3.3790608717528335e-02 0.0000000000000000e+00 4.4612879646677518e-02  3.4730473363499513e-02 0.0000000000000000e+00 5.0239688239736610e-02  3.7276417593378713e-02 0.0000000000000000e+00 5.6081069673393130e-02  3.9675068136804950e-02 0.0000000000000000e+00 6.1662803758611572e-02  4.2280438189568455e-02 0.0000000000000000e+00 6.5009931006641583e-02  4.4807307467121908e-02 0.0000000000000000e+00 6.9640327683227435e-02  4.6957250692194544e-02 0.0000000000000000e+00 7.3553531429458321e-02  5.0439549882118184e-02 0.0000000000000000e+00 8.1111441538815540e-02  5.2167530186193266e-02 0.0000000000000000e+00 8.5658695155898829e-02  5.4463654435427104e-02 0.0000000000000000e+00 9.2636547295047056e-02  5.7391767776023006e-02 0.0000000000000000e+00 9.9542382438001620e-02  5.9420790344275803e-02 0.0000000000000000e+00 1.0752425392686368e-01  6.0172920811465101e-02 0.0000000000000000e+00 1.1754798599906462e-01  6.3098816154372656e-02 0.0000000000000000e+00 1.2222651394767457e-01  6.5063571518572352e-02 0.0000000000000000e+00 1.3116191210740472e-01  6.6001029286154006e-02 0.0000000000000000e+00 1.4045088554199758e-01  7.0519550390277755e-02 0.0000000000000000e+00 1.4404236788842226e-01  7.3366369112407417e-02 0.0000000000000000e+00 1.5371166184140189e-01  7.4813546559638108e-02 0.0000000000000000e+00 1.6426331221274376e-01  7.7399302228476075e-02 0.0000000000000000e+00 1.7329527097911021e-01  8.0333172725030627e-02 0.0000000000000000e+00 1.8415017202166145e-01  8.3204182272513930e-02 0.0000000000000000e+00 1.9199362891541041e-01  8.4489927506460047e-02 0.0000000000000000e+00 2.0480053226730568e-01  8.7288002899067477e-02 0.0000000000000000e+00 2.1223621691780858e-01  8.9437991710494574e-02 0.0000000000000000e+00 2.2509633543344923e-01  9.1657001205907238e-02 0.0000000000000000e+00 2.3433769672216606e-01  9.4692142022918202e-02 0.0000000000000000e+00 2.4380140742606088e-01  9.5318353661857091e-02 0.0000000000000000e+00 2.5385762896270964e-01  9.7732167349410010e-02 0.0000000000000000e+00 2.6511682967537364e-01  9.8407194468020279e-02 0.0000000000000000e+00 2.8017377932411625e-01  1.0212165741632363e-01 0.0000000000000000e+00 2.8934338942097265e-01  1.0374253799556643e-01 0.0000000000000000e+00 3.0202387362754513e-01  1.0568767764719647e-01 0.0000000000000000e+00 3.1312766502324207e-01  1.0691998473217008e-01 0.0000000000000000e+00 3.2719498241335843e-01  1.0927798923399049e-01 0.0000000000000000e+00 3.3995158318541624e-01  1.1095456045093369e-01 0.0000000000000000e+00 3.5454798701813472e-01  1.1295216253777049e-01 0.0000000000000000e+00 3.7013813364636411e-01  1.1523675789679518e-01 0.0000000000000000e+00 3.8360890917694601e-01  1.1707469318200250e-01 0.0000000000000000e+00 4.0058853779617254e-01  1.1931757134859167e-01 0.0000000000000000e+00 4.1455566584979098e-01  1.2227540922363607e-01 0.0000000000000000e+00 4.2808798712322871e-01  1.2300023200979032e-01 0.0000000000000000e+00 4.4155205396554092e-01  1.2555086563750006e-01 0.0000000000000000e+00 4.5762509907152638e-01  1.2762133195995218e-01 0.0000000000000000e+00 4.7434170333952735e-01  1.2901824969589237e-01 0.0000000000000000e+00 4.9063044800401939e-01  1.2973759420979050e-01 0.0000000000000000e+00 5.0754735786872063e-01  1.3140469927292220e-01 0.0000000000000000e+00 5.2576145893179016e-01  1.3379400503946315e-01 0.0000000000000000e+00 5.4230239473020769e-01  1.3618400537416314e-01 0.0000000000000000e+00 5.5855858647029122e-01  1.3884614791966968e-01 0.0000000000000000e+00 5.7752066275780212e-01  1.3976576099105928e-01 0.0000000000000000e+00 5.9643347010123937e-01  1.4124865532835279e-01 0.0000000000000000e+00 6.1445429384113015e-01  1.4320395752666096e-01 0.0000000000000000e+00 6.3261043573586107e-01  1.4611687919223043e-01 0.0000000000000000e+00 6.5182644971599113e-01  1.4767392268089213e-01 0.0000000000000000e+00 6.7017328316368729e-01  1.4961304262731606e-01 0.0000000000000000e+00 6.9177695566656650e-01  1.5094291976402610e-01 0.0000000000000000e+00 7.1156123771224999e-01  1.5335516408642355e-01 0.0000000000000000e+00 7.3126889867663425e-01  1.5433378215795104e-01 0.0000000000000000e+00 7.5477852919560773e-01  1.5692101493703300e-01 0.0000000000000000e+00 7.7450835798972417e-01  1.5864243555723528e-01 0.0000000000000000e+00 7.9470290993495618e-01  1.6154995662675645e-01 0.0000000000000000e+00 8.1629506018743336e-01  1.6280572362451065e-01 0.0000000000000000e+00 8.3780469044155181e-01  1.6463884801075354e-01 0.0000000000000000e+00 8.5882022202889308e-01  1.6547818328764816e-01 0.0000000000000000e+00 8.8207011005700009e-01  1.6667432883186198e-01 0.0000000000000000e+00 9.0579275531672765e-01  1.6937671822591391e-01 0.0000000000000000e+00 9.2939747182669374e-01  1.7045545790350378e-01 0.0000000000000000e+00 9.5228195798215554e-01  1.7217987073646207e-01 0.0000000000000000e+00 9.7646499423377942e-01  1.7437452054332889e-01 0.0000000000000000e+00 9.9971799007860740e-01  1.7564163960737561e-01 0.0000000000000000e+00 1.0214038575920801e+00  1.7666118277964035e-01 0.0000000000000000e+00 1.0465425545496294e+00  1.7855142656011844e-01 0.0000000000000000e+00 1.0701675877204013e+00  1.8071981175560775e-01 0.0000000000000000e+00 1.0942134914842545e+00  1.8222063158382681e-01 0.0000000000000000e+00 1.1184592939800433e+00  1.8341807728096299e-01 0.0000000000000000e+00 1.1440053285479681e+00  1.8335023048927687e-01 0.0000000000000000e+00 1.1700318375776790e+00  1.8380734874208882e-01 0.0000000000000000e+00 1.1978431803730112e+00  1.8566439666483817e-01 0.0000000000000000e+00 1.2231704575168219e+00  1.8693132479127025e-01 0.0000000000000000e+00 1.2481013155087024e+00  1.8868512703407872e-01 0.0000000000000000e+00 1.2721369354111802e+00  1.8829964768716229e-01 0.0000000000000000e+00 1.2979305751474417e+00  1.8788998972460566e-01 0.0000000000000000e+00 1.3236165016674957e+00  1.8713764907792013e-01 0.0000000000000000e+00 1.3505965133841469e+00  1.8590422642340479e-01 0.0000000000000000e+00 1.3779385081883915e+00  1.9524715548235633e-01 -2.7086630465306405e-03 1.4058259557015671e+00  2.1437601180980784e-01 -4.2911302270766463e-03 1.4088674929048293e+00  2.4092991995715371e-01 -4.6818973570385966e-03 1.4139245236940960e+00  2.7891382226938044e-01 -2.7845715692172493e-03 1.4211037585275197e+00  3.2159146260782867e-01 4.1137201141369824e-03 1.4315751469796405e+00  3.8068851599790926e-01 1.5916321955978575e-02 1.4396852891403242e+00  4.4275721080960023e-01 4.5234283090523207e-02 1.4055170104759864e+00  4.3727346724383559e-01 4.7264749344730059e-02 1.3729870534561825e+00  4.3220972394275381e-01 5.0573698962526240e-02 1.3416166772578939e+00  4.2860785688008501e-01 5.3578685343378223e-02 1.3089431754518468e+00  4.2331969524426766e-01 5.7407844919740429e-02 1.2789859386018296e+00  4.1716611298284884e-01 5.8693629959672158e-02 1.2499186948893923e+00  4.1069996680003557e-01 6.0151190476546143e-02 1.2215625314824554e+00  4.0541349425894657e-01 6.0855533696987131e-02 1.1934505010545815e+00  3.9998372539906563e-01 6.1258173918980648e-02 1.1661254802992900e+00  3.9472844301032650e-01 6.2102994336783401e-02 1.1388620365388791e+00  3.8954041408614831e-01 6.2302462392507162e-02 1.1119762653450533e+00  3.8430138840953149e-01 5.9911007021520440e-02 1.0871192947659407e+00  3.7963773043007853e-01 5.9685721699038762e-02 1.0601152839850294e+00  3.7521720067184366e-01 5.8497510260119574e-02 1.0343565317965320e+00  3.6995761369024899e-01 5.7537374505387581e-02 1.0116555192857040e+00  3.6745644241694664e-01 5.9217601510848726e-02 9.8796908639314018e-01  3.6248261600052817e-01 5.9336155473841759e-02 9.6146674507115182e-01  3.5820585893521845e-01 5.7175108565356549e-02 9.3682144960443370e-01  3.5298381638844473e-01 5.5947403734252374e-02 9.1355306059237851e-01  3.4807404040566342e-01 5.5723225233088640e-02 8.8997145769825026e-01  3.4393985783933639e-01 5.5165385972476520e-02 8.6663437659551812e-01  3.4096571122975089e-01 5.5891142439892065e-02 8.4179084281476069e-01  3.3742457643367973e-01 5.5192728291741266e-02 8.1985219144739441e-01  3.3296139773561378e-01 5.7335805218577458e-02 7.9739444207539623e-01  3.2849809365398636e-01 5.6683558098831757e-02 7.7670841704822535e-01  3.2453559211236993e-01 5.6640378925092681e-02 7.5514514830058466e-01  3.2069873011025318e-01 5.5622269515433642e-02 7.3415729738686164e-01  3.1648480203604068e-01 5.5640778277604490e-02 7.1432571824075708e-01  3.1273653986015959e-01 5.4556618809318426e-02 6.9369201072750430e-01  3.0818066802755878e-01 5.4712935714931743e-02 6.7370201427812093e-01  3.0449389998783977e-01 5.5977909006846321e-02 6.5353858761678862e-01  3.0062255515846287e-01 5.5017338092849956e-02 6.3489504866849822e-01  2.9640559005921191e-01 5.5858343193883955e-02 6.1574140651380971e-01  2.9250466323551289e-01 5.6074283097260799e-02 5.9715524012846422e-01  2.8809251059925384e-01 5.7134349175957860e-02 5.7876822812036355e-01  2.8402069639731975e-01 5.7602273079539225e-02 5.6094078237835288e-01  2.7907569205457050e-01 5.7914353576941684e-02 5.4414348025817738e-01  2.7487169990027838e-01 5.7304427916207434e-02 5.2618670821095592e-01  2.7115737178493554e-01 5.5771845500804308e-02 5.0920711301027599e-01  2.6613976476136431e-01 5.7256341091760532e-02 4.9273090759056859e-01  2.6188184241255669e-01 5.8514806171681796e-02 4.7558850597001440e-01  2.5730521567959741e-01 5.6396352463027412e-02 4.5944535434792499e-01  2.5275240987954328e-01 5.8608803755254707e-02 4.4151615566418490e-01  2.4800878236174032e-01 5.7621457668728664e-02 4.2568557995792389e-01  2.4357374116983435e-01 5.6803917080670951e-02 4.1004757249000573e-01  2.3913219412006531e-01 5.7175202960646113e-02 3.9325181278327537e-01  2.3441359434840489e-01 5.7347399390445190e-02 3.7763315477508097e-01  2.3016660841765346e-01 5.5823032934582358e-02 3.6237641732776710e-01  2.2594315887371347e-01 5.6358025645193661e-02 3.4740953321918450e-01  2.2164819352794660e-01 5.5575861944198585e-02 3.3297896158782075e-01  2.1695099922718214e-01 5.5661444683742241e-02 3.1914176758123686e-01  2.1314524505446281e-01 5.4567298829385762e-02 3.0627595147884817e-01  2.0895915098388762e-01 5.5522927222377907e-02 2.9200989990112020e-01  2.0463460575168890e-01 5.4552116933762627e-02 2.8138349565609999e-01  2.0016743021229044e-01 5.5538329634340737e-02 2.6998382378647623e-01  1.9579755396785145e-01 5.5793216063248136e-02 2.5719589514827818e-01  1.9226042229517784e-01 5.5113940239156126e-02 2.4427252910972908e-01  1.8771923434554039e-01 5.5044562834702673e-02 2.3297600106837460e-01  1.8293095454938788e-01 5.6015226197262805e-02 2.2146363067634323e-01  1.7787755706035410e-01 5.6268825751893868e-02 2.1130857257879010e-01  1.7372708795156994e-01 5.4975530987463828e-02 2.0066942501230342e-01  1.6877459816146753e-01 5.5051517905498053e-02 1.9136681589000148e-01  1.6461615018779496e-01 5.5315019686461964e-02 1.8008535063014436e-01  1.5942302601715458e-01 5.5454581596333090e-02 1.7099829595630317e-01  1.5531892713162812e-01 5.5296935292784836e-02 1.6095234380799442e-01  1.5132378745757324e-01 5.7036508017933391e-02 1.5061337682184694e-01  1.4662752475405175e-01 5.5745829660445619e-02 1.4380878528356564e-01  1.4213736360074786e-01 5.6826960619264233e-02 1.3556437445816413e-01  1.3732537112638757e-01 5.6366562683049973e-02 1.2752548582751247e-01  1.3267971674853823e-01 5.6693885385491874e-02 1.1935637088504203e-01  1.2866844038402994e-01 5.6627370419072273e-02 1.1062344032872162e-01  1.2449553288215376e-01 5.6256382341521555e-02 1.0311926005533667e-01  1.1987548950887601e-01 5.5950708973363357e-02 9.6155755293351186e-02  1.1593665366266151e-01 5.6078697207927124e-02 8.8470506409256883e-02  1.1182975625530454e-01 5.5748166007428233e-02 8.1482571220756611e-02  1.0775068674847317e-01 5.6655637894264130e-02 7.3755920126283750e-02  1.0289128896430461e-01 5.6378488772418557e-02 6.7643007794833912e-02  9.7520683108782105e-02 5.6537970990174234e-02 6.1321529077684997e-02  9.3323521705843709e-02 5.6204430521138257e-02 5.5910399917317492e-02  8.9245684031409728e-02 5.7625980448293000e-02 4.8865465780678269e-02  8.4968357915753800e-02 5.6372133415996534e-02 4.4393933262830906e-02  8.0630973845608897e-02 5.5707692479198948e-02 3.9012660948808286e-02  7.6000398380805662e-02 5.7702032047394901e-02 3.2895496104448183e-02  7.1439685375603371e-02 5.6965824512914619e-02 2.9588300822270840e-02  6.6163002231567930e-02 5.7511785078088809e-02 2.7267777293566893e-02  6.1787550921397552e-02 5.7981514829614750e-02 2.2728367941731806e-02  5.7698862995660689e-02 5.8759974575561105e-02 1.7767523763134476e-02  5.3019405589992179e-02 5.7276996333665564e-02 1.6229526407408410e-02  4.8956233917429183e-02 5.8357606800383495e-02 1.2594728760719954e-02  4.4774473319864880e-02 5.7603948046920289e-02 1.0172722258038445e-02  4.0207232439704671e-02 5.8450450700014867e-02 7.8762351106178956e-03  3.5962417939348602e-02 5.8813207422206096e-02 5.6274192925835275e-03  3.1484781209013095e-02 5.9205471682468265e-02 4.0645020853019159e-03  2.7608355439562002e-02 5.8783464719304096e-02 9.8269786065296192e-04  2.3048686084275335e-02 5.9546124469477775e-02 -4.2299835069959578e-04  1.8516392639758242e-02 5.8446432611416826e-02 -1.1774928336338903e-04  1.4183224284698636e-02 6.1213051621978772e-02 -7.7671619009044978e-04  9.0793976931704216e-03 6.1739016896989317e-02 0.0000000000000000e+00  4.3691473714826123e-03 6.1281697944577440e-02 0.0000000000000000e+00  4.4623459447058256e-01 2.9117748724487354e-02 1.4271702588010307e+00  4.3990367195296437e-01 2.0219486146991109e-02 1.4204406522594561e+00  4.3284345775463129e-01 1.2536253943544597e-02 1.4129580994309980e+00  4.3618815982012493e-01 1.0110847821548219e-02 1.4148995847384267e+00  4.3040439696602562e-01 3.5260098245089334e-03 1.4115521059266172e+00  4.2059708306800958e-01 0.0000000000000000e+00 1.3757189823632421e+00  4.1581722603607718e-01 0.0000000000000000e+00 1.3473176736525956e+00  4.1061992050190982e-01 0.0000000000000000e+00 1.3172533829428295e+00  4.0650414937593021e-01 0.0000000000000000e+00 1.2899833028124323e+00  4.0056692839572888e-01 0.0000000000000000e+00 1.2661416905925682e+00  3.9787160818188116e-01 0.0000000000000000e+00 1.2385017918083885e+00  3.9351200818817805e-01 0.0000000000000000e+00 1.2148111042856424e+00  3.9001572150272884e-01 0.0000000000000000e+00 1.1904345048677580e+00  3.8821982151500312e-01 0.0000000000000000e+00 1.1614420144020003e+00  3.8379592647554167e-01 0.0000000000000000e+00 1.1401175146145768e+00  3.8008289061765183e-01 0.0000000000000000e+00 1.1177955279618950e+00  3.7682037425746445e-01 0.0000000000000000e+00 1.0911837089335839e+00  3.7376051028211110e-01 0.0000000000000000e+00 1.0655575159438848e+00  3.7171494973971081e-01 0.0000000000000000e+00 1.0385273945790985e+00  3.6747736728069769e-01 0.0000000000000000e+00 1.0191945156119198e+00  3.6160314235832330e-01 0.0000000000000000e+00 9.9625859334428712e-01  3.5660462592749959e-01 0.0000000000000000e+00 9.7322665980951029e-01  3.5524220946016816e-01 0.0000000000000000e+00 9.4484788317879032e-01  3.5229347666307459e-01 0.0000000000000000e+00 9.2652694283620185e-01  3.4760704443572887e-01 0.0000000000000000e+00 9.0062783399644331e-01  3.4535679978315825e-01 0.0000000000000000e+00 8.7513999194739112e-01  3.3897211116348069e-01 0.0000000000000000e+00 8.5872193173113875e-01  3.3619566872387258e-01 0.0000000000000000e+00 8.3351310285904423e-01  3.3382970984968796e-01 0.0000000000000000e+00 8.1458675312930118e-01  3.2776445006307803e-01 0.0000000000000000e+00 7.9208113726254992e-01  3.2290914173776747e-01 0.0000000000000000e+00 7.7028558735204278e-01  3.2038569371967984e-01 0.0000000000000000e+00 7.4422470394271478e-01  3.1587825573305917e-01 0.0000000000000000e+00 7.2770956732859693e-01  3.1222850187076817e-01 0.0000000000000000e+00 7.0586330755430582e-01  3.0911077318485503e-01 0.0000000000000000e+00 6.8785489957752843e-01  3.0287506583336160e-01 0.0000000000000000e+00 6.6968196021951409e-01  2.9709788084579319e-01 0.0000000000000000e+00 6.5034800127420200e-01  2.9547769355605280e-01 0.0000000000000000e+00 6.2652948715125412e-01  2.9169315367422288e-01 0.0000000000000000e+00 6.1083220676185523e-01  2.8861630061236460e-01 0.0000000000000000e+00 5.8817628283530310e-01  2.8321599913359885e-01 0.0000000000000000e+00 5.7508304839399182e-01  2.7804320461146848e-01 0.0000000000000000e+00 5.5414299466095429e-01  2.7551351426664589e-01 0.0000000000000000e+00 5.3498281831788963e-01  2.7116885036325522e-01 0.0000000000000000e+00 5.2069036191882589e-01  2.6699811807506019e-01 0.0000000000000000e+00 4.9942634679574416e-01  2.6140399133998615e-01 0.0000000000000000e+00 4.8726297187993489e-01  2.5563619973926222e-01 0.0000000000000000e+00 4.6779598252789051e-01  2.5304078945717379e-01 0.0000000000000000e+00 4.4846405589901001e-01  2.4799637408271374e-01 0.0000000000000000e+00 4.3760520897904809e-01  2.4208853336284655e-01 0.0000000000000000e+00 4.2351536621795821e-01  2.3903251400836420e-01 0.0000000000000000e+00 4.0411484301399281e-01  2.3409692866289250e-01 0.0000000000000000e+00 3.9397073749075062e-01  2.3187257116115267e-01 0.0000000000000000e+00 3.7495557069743646e-01  2.2706843691192138e-01 0.0000000000000000e+00 3.6415839531517802e-01  2.2153185264371705e-01 0.0000000000000000e+00 3.4973880169174915e-01  2.1580651949947879e-01 0.0000000000000000e+00 3.3539855127285567e-01  2.1250764604868483e-01 0.0000000000000000e+00 3.1894758033873716e-01  2.0683659323975334e-01 0.0000000000000000e+00 3.1108617972135089e-01  2.0394103718165771e-01 0.0000000000000000e+00 2.9390402678878069e-01  1.9943457855759905e-01 0.0000000000000000e+00 2.84702206947954