<?xml version="1.0"?>
<VTKFile type="UnstructuredGrid"  version="0.1"  >
<UnstructuredGrid>
<Piece  NumberOfPoints="3069" NumberOfCells="12882">
<Points>
<DataArray  type="Float64"  NumberOfComponents="3"  format="ascii">0 0 0  0 0 4  0 5.65685415 0  50 0 4  50 5.65685415 0  50 0 0  0 0 1  0 0 2  0 0 3  0 1.04967844 3.90746784  0 2.0669806 3.632725  0 3.02052855 3.18424606  0 3.88091111 2.5758636  0 4.62159061 1.82634306  0 5.21972132 0.958802283  0 4.71404505 0  0 3.77123618 0  0 2.82842708 0  0 1.88561809 0  0 0.942809045 0  0.5 0 4  1 0 4  1.5 0 4  2 0 4  2.5 0 4  3 0 4  3.5 0 4  4 0 4  4.5 0 4  5 0 4  5.5 0 4  6 0 4  6.5 0 4  7 0 4  7.5 0 4  8 0 4  8.5 0 4  9 0 4  9.5 0 4  10 0 4  10.5 0 4  11 0 4  11.5 0 4  12 0 4  12.5 0 4  13 0 4  13.5 0 4  14 0 4  14.5 0 4  15 0 4  15.5 0 4  16 0 4  16.5 0 4  17 0 4  17.5 0 4  18 0 4  18.5 0 4  19 0 4  19.5 0 4  20 0 4  20.5 0 4  21 0 4  21.5 0 4  22 0 4  22.5 0 4  23 0 4  23.5 0 4  24 0 4  24.5 0 4  25 0 4  25.5 0 4  26 0 4  26.5 0 4  27 0 4  27.5 0 4  28 0 4  28.5 0 4  29 0 4  29.5 0 4  30 0 4  30.5 0 4  31 0 4  31.5 0 4  32 0 4  32.5 0 4  33 0 4  33.5 0 4  34 0 4  34.5 0 4  35 0 4  35.5 0 4  36 0 4  36.5 0 4  37 0 4  37.5 0 4  38 0 4  38.5 0 4  39 0 4  39.5 0 4  40 0 4  40.5 0 4  41 0 4  41.5 0 4  42 0 4  42.5 0 4  43 0 4  43.5 0 4  44 0 4  44.5 0 4  45 0 4  45.5 0 4  46 0 4  46.5 0 4  47 0 4  47.5 0 4  48 0 4  48.5 0 4  49 0 4  49.5 0 4  50 1.04967844 3.90746784  50 2.0669806 3.632725  50 3.02052855 3.18424606  50 3.88091111 2.5758636  50 4.62159061 1.82634306  50 5.21972132 0.958802283  49.5 5.65685415 0  49 5.65685415 0  48.5 5.65685415 0  48 5.65685415 0  47.5 5.65685415 0  47 5.65685415 0  46.5 5.65685415 0  46 5.65685415 0  45.5 5.65685415 0  45 5.65685415 0  44.5 5.65685415 0  44 5.65685415 0  43.5 5.65685415 0  43 5.65685415 0  42.5 5.65685415 0  42 5.65685415 0  41.5 5.65685415 0  41 5.65685415 0  40.5 5.65685415 0  40 5.65685415 0  39.5 5.65685415 0  39 5.65685415 0  38.5 5.65685415 0  38 5.65685415 0  37.5 5.65685415 0  37 5.65685415 0  36.5 5.65685415 0  36 5.65685415 0  35.5 5.65685415 0  35 5.65685415 0  34.5 5.65685415 0  34 5.65685415 0  33.5 5.65685415 0  33 5.65685415 0  32.5 5.65685415 0  32 5.65685415 0  31.5 5.65685415 0  31 5.65685415 0  30.5 5.65685415 0  30 5.65685415 0  29.5 5.65685415 0  29 5.65685415 0  28.5 5.65685415 0  28 5.65685415 0  27.5 5.65685415 0  27 5.65685415 0  26.5 5.65685415 0  26 5.65685415 0  25.5 5.65685415 0  25 5.65685415 0  24.5 5.65685415 0  24 5.65685415 0  23.5 5.65685415 0  23 5.65685415 0  22.5 5.65685415 0  22 5.65685415 0  21.5 5.65685415 0  21 5.65685415 0  20.5 5.65685415 0  20 5.65685415 0  19.5 5.65685415 0  19 5.65685415 0  18.5 5.65685415 0  18 5.65685415 0  17.5 5.65685415 0  17 5.65685415 0  16.5 5.65685415 0  16 5.65685415 0  15.5 5.65685415 0  15 5.65685415 0  14.5 5.65685415 0  14 5.65685415 0  13.5 5.65685415 0  13 5.65685415 0  12.5 5.65685415 0  12 5.65685415 0  11.5 5.65685415 0  11 5.65685415 0  10.5 5.65685415 0  10 5.65685415 0  9.5 5.65685415 0  9 5.65685415 0  8.5 5.65685415 0  8 5.65685415 0  7.5 5.65685415 0  7 5.65685415 0  6.5 5.65685415 0  6 5.65685415 0  5.5 5.65685415 0  5 5.65685415 0  4.5 5.65685415 0  4 5.65685415 0  3.5 5.65685415 0  3 5.65685415 0  2.5 5.65685415 0  2 5.65685415 0  1.5 5.65685415 0  1 5.65685415 0  0.5 5.65685415 0  50 4.71404505 0  50 3.77123618 0  50 2.82842708 0  50 1.88561809 0  50 0.942809045 0  49.5 0 0  49 0 0  48.5 0 0  48 0 0  47.5 0 0  47 0 0  46.5 0 0  46 0 0  45.5 0 0  45 0 0  44.5 0 0  44 0 0  43.5 0 0  43 0 0  42.5 0 0  42 0 0  41.5 0 0  41 0 0  40.5 0 0  40 0 0  39.5 0 0  39 0 0  38.5 0 0  38 0 0  37.5 0 0  37 0 0  36.5 0 0  36 0 0  35.5 0 0  35 0 0  34.5 0 0  34 0 0  33.5 0 0  33 0 0  32.5 0 0  32 0 0  31.5 0 0  31 0 0  30.5 0 0  30 0 0  29.5 0 0  29 0 0  28.5 0 0  28 0 0  27.5 0 0  27 0 0  26.5 0 0  26 0 0  25.5 0 0  25 0 0  24.5 0 0  24 0 0  23.5 0 0  23 0 0  22.5 0 0  22 0 0  21.5 0 0  21 0 0  20.5 0 0  20 0 0  19.5 0 0  19 0 0  18.5 0 0  18 0 0  17.5 0 0  17 0 0  16.5 0 0  16 0 0  15.5 0 0  15 0 0  14.5 0 0  14 0 0  13.5 0 0  13 0 0  12.5 0 0  12 0 0  11.5 0 0  11 0 0  10.5 0 0  10 0 0  9.5 0 0  9 0 0  8.5 0 0  8 0 0  7.5 0 0  7 0 0  6.5 0 0  6 0 0  5.5 0 0  5 0 0  4.5 0 0  4 0 0  3.5 0 0  3 0 0  2.5 0 0  2 0 0  1.5 0 0  1 0 0  0.5 0 0  50 0 1  50 0 2  50 0 3  0 2.33524275 0.893602192  0 2.87561393 1.93323028  0 4.2367816 0.876864135  0 2.00050235 2.65534091  0 0.981494486 2.34323239  0 3.78543234 1.61830366  0 3.30545568 0.887000024  0 0.812916458 1.58408713  0 1.71948838 1.71268857  0 1.28267908 0.8650629520000001  0 1.21973121 3.10775328  0.5 5.21972132 0.958802223  0.5 4.62159061 1.82634306  0.5 3.88091111 2.5758636  0.5 3.02052855 3.18424606  0.5 2.0669806 3.632725  0.5 1.04967844 3.90746784  1 5.21972132 0.958802223  1 4.62159061 1.82634306  1 3.88091111 2.5758636  1 3.02052855 3.18424606  1 2.0669806 3.632725  1 1.04967844 3.90746784  1.5 5.21972132 0.958802223  1.5 4.62159061 1.82634306  1.5 3.88091111 2.5758636  1.5 3.02052855 3.18424606  1.5 2.0669806 3.632725  1.5 1.04967844 3.90746784  2 5.21972132 0.958802223  2 4.62159061 1.82634306  2 3.88091111 2.5758636  2 3.02052855 3.18424606  2 2.0669806 3.632725  2 1.04967844 3.90746784  2.5 5.21972132 0.958802223  2.5 4.62159061 1.82634306  2.5 3.88091111 2.5758636  2.5 3.02052855 3.18424606  2.5 2.0669806 3.632725  2.5 1.04967844 3.90746784  3 5.21972132 0.958802223  3 4.62159061 1.82634306  3 3.88091111 2.5758636  3 3.02052855 3.18424606  3 2.0669806 3.632725  3 1.04967844 3.90746784  3.5 5.21972132 0.958802223  3.5 4.62159061 1.82634306  3.5 3.88091111 2.5758636  3.5 3.02052855 3.18424606  3.5 2.0669806 3.632725  3.5 1.04967844 3.90746784  4 5.21972132 0.958802223  4 4.62159061 1.82634306  4 3.88091111 2.5758636  4 3.02052855 3.18424606  4 2.0669806 3.632725  4 1.04967844 3.90746784  4.5 5.21972132 0.958802223  4.5 4.62159061 1.82634306  4.5 3.88091111 2.5758636  4.5 3.02052855 3.18424606  4.5 2.0669806 3.632725  4.5 1.04967844 3.90746784  5 5.21972132 0.958802223  5 4.62159061 1.82634306  5 3.88091111 2.5758636  5 3.02052855 3.18424606  5 2.0669806 3.632725  5 1.04967844 3.90746784  5.5 5.21972132 0.958802223  5.5 4.62159061 1.82634306  5.5 3.88091111 2.5758636  5.5 3.02052855 3.18424606  5.5 2.0669806 3.632725  5.5 1.04967844 3.90746784  6 5.21972132 0.958802223  6 4.62159061 1.82634306  6 3.88091111 2.5758636  6 3.02052855 3.18424606  6 2.0669806 3.632725  6 1.04967844 3.90746784  6.5 5.21972132 0.958802223  6.5 4.62159061 1.82634306  6.5 3.88091111 2.5758636  6.5 3.02052855 3.18424606  6.5 2.0669806 3.632725  6.5 1.04967844 3.90746784  7 5.21972132 0.958802223  7 4.62159061 1.82634306  7 3.88091111 2.5758636  7 3.02052855 3.18424606  7 2.0669806 3.632725  7 1.04967844 3.90746784  7.5 5.21972132 0.958802223  7.5 4.62159061 1.82634306  7.5 3.88091111 2.5758636  7.5 3.02052855 3.18424606  7.5 2.0669806 3.632725  7.5 1.04967844 3.90746784  8 5.21972132 0.958802223  8 4.62159061 1.82634306  8 3.88091111 2.5758636  8 3.02052855 3.18424606  8 2.0669806 3.632725  8 1.04967844 3.90746784  8.5 5.21972132 0.958802223  8.5 4.62159061 1.82634306  8.5 3.88091111 2.5758636  8.5 3.02052855 3.18424606  8.5 2.0669806 3.632725  8.5 1.04967844 3.90746784  9 5.21972132 0.958802223  9 4.62159061 1.82634306  9 3.88091111 2.5758636  9 3.02052855 3.18424606  9 2.0669806 3.632725  9 1.04967844 3.90746784  9.5 5.21972132 0.958802223  9.5 4.62159061 1.82634306  9.5 3.88091111 2.5758636  9.5 3.02052855 3.18424606  9.5 2.0669806 3.632725  9.5 1.04967844 3.90746784  10 5.21972132 0.958802223  10 4.62159061 1.82634306  10 3.88091111 2.5758636  10 3.02052855 3.18424606  10 2.0669806 3.632725  10 1.04967844 3.90746784  10.5 5.21972132 0.958802223  10.5 4.62159061 1.82634306  10.5 3.88091111 2.5758636  10.5 3.02052855 3.18424606  10.5 2.0669806 3.632725  10.5 1.04967844 3.90746784  11 5.21972132 0.958802223  11 4.62159061 1.82634306  11 3.88091111 2.5758636  11 3.02052855 3.18424606  11 2.0669806 3.632725  11 1.04967844 3.90746784  11.5 5.21972132 0.958802223  11.5 4.62159061 1.82634306  11.5 3.88091111 2.5758636  11.5 3.02052855 3.18424606  11.5 2.0669806 3.632725  11.5 1.04967844 3.90746784  12 5.21972132 0.958802223  12 4.62159061 1.82634306  12 3.88091111 2.5758636  12 3.02052855 3.18424606  12 2.0669806 3.632725  12 1.04967844 3.90746784  12.5 5.21972132 0.958802223  12.5 4.62159061 1.82634306  12.5 3.88091111 2.5758636  12.5 3.02052855 3.18424606  12.5 2.0669806 3.632725  12.5 1.04967844 3.90746784  13 5.21972132 0.958802223  13 4.62159061 1.82634306  13 3.88091111 2.5758636  13 3.02052855 3.18424606  13 2.0669806 3.632725  13 1.04967844 3.90746784  13.5 5.21972132 0.958802223  13.5 4.62159061 1.82634306  13.5 3.88091111 2.5758636  13.5 3.02052855 3.18424606  13.5 2.0669806 3.632725  13.5 1.04967844 3.90746784  14 5.21972132 0.958802223  14 4.62159061 1.82634306  14 3.88091111 2.5758636  14 3.02052855 3.18424606  14 2.0669806 3.632725  14 1.04967844 3.90746784  14.5 5.21972132 0.958802223  14.5 4.62159061 1.82634306  14.5 3.88091111 2.5758636  14.5 3.02052855 3.18424606  14.5 2.0669806 3.632725  14.5 1.04967844 3.90746784  15 5.21972132 0.958802223  15 4.62159061 1.82634306  15 3.88091111 2.5758636  15 3.02052855 3.18424606  15 2.0669806 3.632725  15 1.04967844 3.90746784  15.5 5.21972132 0.958802223  15.5 4.62159061 1.82634306  15.5 3.88091111 2.5758636  15.5 3.02052855 3.18424606  15.5 2.0669806 3.632725  15.5 1.04967844 3.90746784  16 5.21972132 0.958802223  16 4.62159061 1.82634306  16 3.88091111 2.5758636  16 3.02052855 3.18424606  16 2.0669806 3.632725  16 1.04967844 3.90746784  16.5 5.21972132 0.958802223  16.5 4.62159061 1.82634306  16.5 3.88091111 2.5758636  16.5 3.02052855 3.18424606  16.5 2.0669806 3.632725  16.5 1.04967844 3.90746784  17 5.21972132 0.958802223  17 4.62159061 1.82634306  17 3.88091111 2.5758636  17 3.02052855 3.18424606  17 2.0669806 3.632725  17 1.04967844 3.90746784  17.5 5.21972132 0.958802223  17.5 4.62159061 1.82634306  17.5 3.88091111 2.5758636  17.5 3.02052855 3.18424606  17.
[...]
<PointData  Vectors="f_261141-0"> 
<DataArray  type="Float64"  Name="f_261141-0"  NumberOfComponents="3" format="ascii">0.0000000000000000e+00 0.0000000000000000e+00 0.0000000000000000e+00  0.0000000000000000e+00 0.0000000000000000e+00 8.6410341459515161e-01  0.0000000000000000e+00 1.0882563088916457e+00 0.0000000000000000e+00  1.0545474694952725e+01 0.0000000000000000e+00 -2.5293362124583432e+00  9.9575361322040870e+00 1.1065506440324415e+00 -3.3795946059813136e+00  9.9795805254436640e+00 0.0000000000000000e+00 -3.2955924902789655e+00  0.0000000000000000e+00 0.0000000000000000e+00 1.5596515141763587e-01  0.0000000000000000e+00 0.0000000000000000e+00 4.1526619638956430e-01  0.0000000000000000e+00 0.0000000000000000e+00 7.0867793808298352e-01  0.0000000000000000e+00 2.6365741405605347e-01 8.2112295016595604e-01  0.0000000000000000e+00 4.5275763106408573e-01 7.2399237659335203e-01  0.0000000000000000e+00 6.5085212983579999e-01 6.3842413653256103e-01  0.0000000000000000e+00 8.2744327096770764e-01 5.1090539467595619e-01  0.0000000000000000e+00 9.6244319333207717e-01 3.2554272683695834e-01  0.0000000000000000e+00 1.0513102648928623e+00 1.6796922189647098e-01  0.0000000000000000e+00 9.3740071285336413e-01 0.0000000000000000e+00  0.0000000000000000e+00 7.7448650492317173e-01 0.0000000000000000e+00  0.0000000000000000e+00 5.9611051912691426e-01 0.0000000000000000e+00  0.0000000000000000e+00 4.0471964545162026e-01 0.0000000000000000e+00  0.0000000000000000e+00 2.0609206267643473e-01 0.0000000000000000e+00  1.0419584589964657e-01 0.0000000000000000e+00 8.6807687464775751e-01  2.1081038441360642e-01 0.0000000000000000e+00 8.6705155675997825e-01  3.1846319998161132e-01 0.0000000000000000e+00 8.6403047688977563e-01  4.2766113039687231e-01 0.0000000000000000e+00 8.6192987391364906e-01  5.2649693705233547e-01 0.0000000000000000e+00 8.7389362694969175e-01  6.4141918675218690e-01 0.0000000000000000e+00 8.6199536007616784e-01  7.4407908821256152e-01 0.0000000000000000e+00 8.5789521922556267e-01  8.5606770660555798e-01 0.0000000000000000e+00 8.4397723522916634e-01  9.6481789680637264e-01 0.0000000000000000e+00 8.3090275562801053e-01  1.0694818821290855e+00 0.0000000000000000e+00 8.2197483159008833e-01  1.1740047877564630e+00 0.0000000000000000e+00 8.1510695350708184e-01  1.2791376925125753e+00 0.0000000000000000e+00 8.2280853668776066e-01  1.3857850661916311e+00 0.0000000000000000e+00 8.1995549343658458e-01  1.5037520003311224e+00 0.0000000000000000e+00 7.9305509268887209e-01  1.6091728846366136e+00 0.0000000000000000e+00 7.8218163309980682e-01  1.7226457347978816e+00 0.0000000000000000e+00 7.7081240972101939e-01  1.8298259594340691e+00 0.0000000000000000e+00 7.6287641207094936e-01  1.9381233454731064e+00 0.0000000000000000e+00 7.4577287245292789e-01  2.0425979335921460e+00 0.0000000000000000e+00 7.4009372864736178e-01  2.1459066124174950e+00 0.0000000000000000e+00 7.3544145451422338e-01  2.2506440278937130e+00 0.0000000000000000e+00 7.3595575146562509e-01  2.3566591373088159e+00 0.0000000000000000e+00 7.1083495923102269e-01  2.4646069862053555e+00 0.0000000000000000e+00 7.0140895211575327e-01  2.5735547495665583e+00 0.0000000000000000e+00 6.8380720607021406e-01  2.6781730628564495e+00 0.0000000000000000e+00 6.7728472776545401e-01  2.7887870318875474e+00 0.0000000000000000e+00 6.5274288343065079e-01  2.8969607125476267e+00 0.0000000000000000e+00 6.3103440812590961e-01  2.9997476394892386e+00 0.0000000000000000e+00 6.2176351542378849e-01  3.1076320505864694e+00 0.0000000000000000e+00 6.0378031049162262e-01  3.2149858367126898e+00 0.0000000000000000e+00 5.7169634818776272e-01  3.3106675677629624e+00 0.0000000000000000e+00 5.7575298219281801e-01  3.4143126781015329e+00 0.0000000000000000e+00 5.4783228206872414e-01  3.5217430222529775e+00 0.0000000000000000e+00 5.1789826246764137e-01  3.6316819279161883e+00 0.0000000000000000e+00 4.8567967064031303e-01  3.7433976499801513e+00 0.0000000000000000e+00 4.5977975160210843e-01  3.8524788503235090e+00 0.0000000000000000e+00 4.4151577186544799e-01  3.9624343732157201e+00 0.0000000000000000e+00 4.1952218234750072e-01  4.0677831738949832e+00 0.0000000000000000e+00 4.0328602840936012e-01  4.1784359532038282e+00 0.0000000000000000e+00 3.7167053316736437e-01  4.2833503778743038e+00 0.0000000000000000e+00 3.5422514269586797e-01  4.3837605474659691e+00 0.0000000000000000e+00 3.3512665804685660e-01  4.4929821487591779e+00 0.0000000000000000e+00 3.0795358137317086e-01  4.5957907601135819e+00 0.0000000000000000e+00 2.8009894488956755e-01  4.7090614354044522e+00 0.0000000000000000e+00 2.2943929427410431e-01  4.8089890476443733e+00 0.0000000000000000e+00 2.0715287427276538e-01  4.9124855292453642e+00 0.0000000000000000e+00 1.7726583683129388e-01  5.0186692549939478e+00 0.0000000000000000e+00 1.6051050823371377e-01  5.1279408524930501e+00 0.0000000000000000e+00 1.3308795414154337e-01  5.2345608798967316e+00 0.0000000000000000e+00 1.0454938987592684e-01  5.3424503592415995e+00 0.0000000000000000e+00 7.2616949385337137e-02  5.4506988520843533e+00 0.0000000000000000e+00 3.2039973700245000e-02  5.5538269106391445e+00 0.0000000000000000e+00 1.3252182459279511e-02  5.6644384899322358e+00 0.0000000000000000e+00 -3.1163551617090217e-02  5.7671673273852528e+00 0.0000000000000000e+00 -5.5173080000282197e-02  5.8753833926543217e+00 0.0000000000000000e+00 -9.6404964405315610e-02  5.9885697763435131e+00 0.0000000000000000e+00 -1.3338689950170146e-01  6.0934726914328419e+00 0.0000000000000000e+00 -1.7417965504618599e-01  6.1962303079058412e+00 0.0000000000000000e+00 -2.0601539308655020e-01  6.3043109091663254e+00 0.0000000000000000e+00 -2.4007638343214646e-01  6.4137396034709218e+00 0.0000000000000000e+00 -2.9074626460298464e-01  6.5178460201202340e+00 0.0000000000000000e+00 -3.4343599232986155e-01  6.6200546959021711e+00 0.0000000000000000e+00 -3.7051873211997050e-01  6.7267223042151194e+00 0.0000000000000000e+00 -4.1634454835979506e-01  6.8334054710558867e+00 0.0000000000000000e+00 -4.6176630098410471e-01  6.9348587637589398e+00 0.0000000000000000e+00 -4.8665073492514788e-01  7.0461083054032141e+00 0.0000000000000000e+00 -5.2474744547068830e-01  7.1577872264436166e+00 0.0000000000000000e+00 -5.7084200558748976e-01  7.2599317834435126e+00 0.0000000000000000e+00 -6.1433876456059822e-01  7.3660770674159366e+00 0.0000000000000000e+00 -6.6125656296490853e-01  7.4676210927227080e+00 0.0000000000000000e+00 -7.0904726851945621e-01  7.5721967936016297e+00 0.0000000000000000e+00 -7.5237610032542068e-01  7.6765009904062902e+00 0.0000000000000000e+00 -7.9999139817563258e-01  7.7859062375459160e+00 0.0000000000000000e+00 -8.6568518577608233e-01  7.8922192242503852e+00 0.0000000000000000e+00 -9.1549412876562342e-01  8.0019359480521715e+00 0.0000000000000000e+00 -9.6352520439257983e-01  8.1053696455914785e+00 0.0000000000000000e+00 -1.0131187730398719e+00  8.2131966096497191e+00 0.0000000000000000e+00 -1.0649164270313569e+00  8.3153226221853096e+00 0.0000000000000000e+00 -1.1165981699662324e+00  8.4241191797958859e+00 0.0000000000000000e+00 -1.1831207524260501e+00  8.5266210569165963e+00 0.0000000000000000e+00 -1.2357409755361952e+00  8.6301875722799242e+00 0.0000000000000000e+00 -1.2862575884800633e+00  8.7439887227625874e+00 0.0000000000000000e+00 -1.3460209740540161e+00  8.8526248047601186e+00 0.0000000000000000e+00 -1.4059427294346245e+00  8.9549892818215859e+00 0.0000000000000000e+00 -1.4544726467241140e+00  9.0648486127894667e+00 0.0000000000000000e+00 -1.5220771141198295e+00  9.1672730464563461e+00 0.0000000000000000e+00 -1.5762360720420432e+00  9.2753666920100990e+00 0.0000000000000000e+00 -1.6366325185102850e+00  9.3815303026418029e+00 0.0000000000000000e+00 -1.7077640014105220e+00  9.4873462171608711e+00 0.0000000000000000e+00 -1.7879850756458500e+00  9.5884264644173509e+00 0.0000000000000000e+00 -1.8553013649810575e+00  9.6932725657347696e+00 0.0000000000000000e+00 -1.9330995811337042e+00  9.7942897613808100e+00 0.0000000000000000e+00 -2.0052180154615544e+00  9.8925450623848654e+00 0.0000000000000000e+00 -2.0735332800347708e+00  9.9864545763814867e+00 0.0000000000000000e+00 -2.1425108576375584e+00  1.0078675651289862e+01 0.0000000000000000e+00 -2.2130445449951379e+00  1.0172542727639636e+01 0.0000000000000000e+00 -2.2763723072747455e+00  1.0267109686738197e+01 0.0000000000000000e+00 -2.3338435623732061e+00  1.0361993148801309e+01 0.0000000000000000e+00 -2.4000456741870400e+00  1.0456061889790831e+01 0.0000000000000000e+00 -2.4692890012647113e+00  1.0525913850019014e+01 2.1172904079030833e-01 -2.5436672828974083e+00  1.0504811952952787e+01 4.1423046325363422e-01 -2.5963646506791558e+00  1.0455108351344808e+01 6.2447286085135756e-01 -2.6809854087262290e+00  1.0384076926847298e+01 8.2574514816570443e-01 -2.7994322228132567e+00  1.0283519244047033e+01 9.9640063874879936e-01 -2.9938723299925210e+00  1.0114968437403325e+01 1.0746858076759882e+00 -3.1997573252991485e+00  9.8717375012200002e+00 1.1012620905397432e+00 -3.3036024112853353e+00  9.7836260831740400e+00 1.0969807797525528e+00 -3.2252226445792380e+00  9.6958359491989370e+00 1.0947850517473752e+00 -3.1472465140618291e+00  9.6049826962747495e+00 1.0895195509651507e+00 -3.0641980209910273e+00  9.5170989238481365e+00 1.0872387041219238e+00 -2.9919598971187966e+00  9.4287329752995923e+00 1.0910891186068665e+00 -2.9260704495061707e+00  9.3393558281229048e+00 1.0867343371721290e+00 -2.8583909084320527e+00  9.2464214261506381e+00 1.0886455735786935e+00 -2.7884563741748933e+00  9.1536273906351351e+00 1.0921332821500063e+00 -2.7198312615618216e+00  9.0594348216163390e+00 1.0934825187713813e+00 -2.6506014919689034e+00  8.9639767286450454e+00 1.0964857409753499e+00 -2.5833819344076772e+00  8.8682314244769831e+00 1.1061319273128987e+00 -2.5212431995848181e+00  8.7726198453971236e+00 1.1074798617960278e+00 -2.4532058142785660e+00  8.6756854331181614e+00 1.1058405382168255e+00 -2.3905982246525586e+00  8.5789928185591613e+00 1.1109478566526141e+00 -2.3417598161405606e+00  8.4747668051062117e+00 1.1046599148824048e+00 -2.2825561915128936e+00  8.3815954340142511e+00 1.1076659570430991e+00 -2.2163160909400625e+00  8.2850567526662857e+00 1.1172348494291484e+00 -2.1537918537618008e+00  8.1900532900864285e+00 1.1214540199943317e+00 -2.0964775100379547e+00  8.0933712261105892e+00 1.1256100395960031e+00 -2.0356374711589185e+00  7.9960052156287320e+00 1.1301881883089782e+00 -1.9740989433582319e+00  7.8971951164585521e+00 1.1280092238929542e+00 -1.9105072742883156e+00  7.7971696450349013e+00 1.1338869310773270e+00 -1.8578400264044155e+00  7.6981546000796461e+00 1.1223124257303421e+00 -1.8050776074534336e+00  7.6001649155833464e+00 1.1242014326092229e+00 -1.7603561964644741e+00  7.5013213495518176e+00 1.1240568960034649e+00 -1.7130394267799178e+00  7.4003243690124831e+00 1.1240435928524959e+00 -1.6662882367132414e+00  7.2998975730700062e+00 1.1229770813119289e+00 -1.6225576905445620e+00  7.2000308948345424e+00 1.1246372972440082e+00 -1.5791153902805144e+00  7.1002954764841260e+00 1.1212234378250756e+00 -1.5309384019854781e+00  6.9992303643171141e+00 1.1209723643291332e+00 -1.4863860010102175e+00  6.8986308558868759e+00 1.1252716259717219e+00 -1.4449660278000869e+00  6.7976947148542797e+00 1.1195653734539093e+00 -1.4031023679239518e+00  6.6960289349170710e+00 1.1143110057263668e+00 -1.3627515305672118e+00  6.5955368978742195e+00 1.1123758372234076e+00 -1.3218428265444977e+00  6.4950788833582562e+00 1.1097742438872273e+00 -1.2813959878253931e+00  6.3946732005643270e+00 1.1097016411720046e+00 -1.2413846190406215e+00  6.2926654702086964e+00 1.1139255797109979e+00 -1.2008979450492241e+00  6.1910015754673928e+00 1.1181742353786748e+00 -1.1655992788022138e+00  6.0905699291873825e+00 1.1089951198980557e+00 -1.1283132916153484e+00  5.9890293607233094e+00 1.1059578428609187e+00 -1.0922677653709654e+00  5.8886856759883948e+00 1.1098070080609777e+00 -1.0581978003329315e+00  5.7898793535980770e+00 1.1016768332292597e+00 -1.0167599917199062e+00  5.6894388301877932e+00 1.1040206553527743e+00 -9.7811865843776424e-01  5.5897509146396862e+00 1.1096797412855899e+00 -9.4364644414908971e-01  5.4904852347245843e+00 1.1078347711119456e+00 -9.0396427287974079e-01  5.3928283741769780e+00 1.1091961752440307e+00 -8.6797187160790079e-01  5.2925286379053826e+00 1.1137281187094663e+00 -8.3449531487819084e-01  5.1913848810645504e+00 1.1098426969286292e+00 -7.9438546792235121e-01  5.0885449478278746e+00 1.1150143511642161e+00 -7.5578264763140701e-01  4.9868678060787763e+00 1.1169343341382849e+00 -7.2620348370374299e-01  4.8837258843114189e+00 1.1218211258489601e+00 -7.0136573888286224e-01  4.7812181416751445e+00 1.1155996074363665e+00 -6.7129118738659477e-01  4.6790237588576558e+00 1.1181837603679625e+00 -6.4542137293446367e-01  4.5795664285022291e+00 1.1179637432345191e+00 -6.1944548777800867e-01  4.4770830818997434e+00 1.1178594563216202e+00 -5.8774073687549833e-01  4.3750246302414446e+00 1.1139454217903912e+00 -5.5256782453682463e-01  4.2737432740547510e+00 1.1212147482353989e+00 -5.2687369342490065e-01  4.1735446946409498e+00 1.1206288758356622e+00 -5.0191305853392887e-01  4.0741260194908939e+00 1.1212701480360350e+00 -4.7975683856410106e-01  3.9707739119825751e+00 1.1265519209646337e+00 -4.5955623011865154e-01  3.8689471404436970e+00 1.1186372223477121e+00 -4.3714149055354817e-01  3.7648079154138845e+00 1.1167493490436846e+00 -4.1356404532776242e-01  3.6633679466918343e+00 1.1202822222620354e+00 -3.9767589080703192e-01  3.5613084316067378e+00 1.1141121484522192e+00 -3.7389465906214575e-01  3.4587335406981214e+00 1.1015648512453551e+00 -3.4722025248998933e-01  3.3580028413560270e+00 1.1039950016952351e+00 -3.3544710108557035e-01  3.2563077919985952e+00 1.1014657260167462e+00 -3.1982587722636246e-01  3.1561383223709734e+00 1.1013671940433758e+00 -3.0181696356154153e-01  3.0562254836336948e+00 1.1022756486161565e+00 -2.8197281352283465e-01  2.9540278292243816e+00 1.1037097949555665e+00 -2.5895042896459070e-01  2.8512894873443826e+00 1.1059475124778011e+00 -2.3818125936757581e-01  2.7498311836181855e+00 1.1110984652390823e+00 -2.2275884445943761e-01  2.6478473479947207e+00 1.1105397921403619e+00 -2.0340748015208271e-01  2.5456552918724067e+00 1.1116661028645005e+00 -1.8557568150718581e-01  2.4442445119203109e+00 1.1068685447776738e+00 -1.6630160758470114e-01  2.3434075821675671e+00 1.1088147719783681e+00 -1.5261181413377609e-01  2.2437289326379086e+00 1.1132888738633855e+00 -1.3929574902846467e-01  2.1401188450347433e+00 1.1144172334899680e+00 -1.2531828867138273e-01  2.0366340819147606e+00 1.1085218281463773e+00 -1.0439291532223964e-01  1.9353840861121956e+00 1.1168213075206168e+00 -9.3827686260237256e-02  1.8320618583916073e+00 1.1193292444597178e+00 -8.0388273357188941e-02  1.7305509607129239e+00 1.1088165353011268e+00 -6.2902054559465778e-02  1.6286807942813715e+00 1.1108121642384445e+00 -5.5009974900276398e-02  1.5288220119105940e+00 1.1111309626811097e+00 -4.8792399494640412e-02  1.4282597164373061e+00 1.1122995397040560e+00 -3.8282562610308185e-02  1.3265330741004249e+00 1.1098680916677262e+00 -2.2963635389596879e-02  1.2243130274586873e+00 1.1176597973560105e+00 -1.8521445400185941e-02  1.1219217528316117e+00 1.1191955509372873e+00 -1.3332761854009053e-02  1.0194281998790977e+00 1.1194495277034771e+00 -6.0470072910829200e-03  9.1651869712774992e-01 1.1162329794332144e+00 -2.9586968296168611e-03  8.1466420250505489e-01 1.1143293106414707e+00 4.3222816351428631e-04  7.1138778177943929e-01 1.1159325433637275e+00 2.1740152072448598e-03  6.0682262411433607e-01 1.1121124056691423e+00 1.0447455767145463e-02  5.0561097505479269e-01 1.1081636375855997e+00 1.2045131210245598e-02  4.0360835631111630e-01 1.1103724317294228e+00 5.6384538126527505e-03  3.0057463293627473e-01 1.0989770457979062e+00 4.2062831634456458e-03  1.9923063455523246e-01 1.0933534968935210e+00 0.0000000000000000e+00  9.8414370565062526e-02 1.0860192394603168e+00 0.0000000000000000e+00  9.9681096260372311e+00 9.3282622772220936e-01 -3.3496966903184640e+00  9.9734470671279887e+00 7.4477696295277640e-01 -3.3318477112752034e+00  9.9812290444476055e+00 5.6838317249717840e-01 -3.3204876289709588e+00  9.9823335033448277e+00 3.7218746494254523e-01 -3.3082587033326782e+00  9.9789805814371899e+00 1.7543059585535392e-01 -3.3076325581532311e+00  9.8997831935884868e+00 0.0000000000000000e+00 -3.2319599647452599e+00  9.8188335799107609e+00 0.0000000000000000e+00 -3.1682183509362942e+00  9.7328512914477106e+00 0.0000000000000000e+00 -3.1034783014030292e+00  9.6433125715554286e+00 0.0000000000000000e+00 -3.0431267199068124e+00  9.5521093717288643e+00 0.0000000000000000e+00 -2.9804131017833422e+00  9.4547528336415798e+00 0.0000000000000000e+00 -2.9171839312691223e+00  9.3610437555962811e+00 0.0000000000000000e+00 -2.8611267680757297e+00  9.2585930354377766e+00 0.0000000000000000e+00 -2.7983377609339608e+00  9.1582366039324334e+00 0.0000000000000000e+00 -2.7288701740241259e+00  9.0594796885222024e+00 0.0000000000000000e+00 -2.6830955615059708e+00  8.9598733326307638e+00 0.0000000000000000e+00 -2.6194586688258306e+00  8.8655785648486436e+00 0.0000000000000000e+00 -2.5573573721447840e+00  8.7705515910267522e+00 0.0000000000000000e+00 -2.4849279783414433e+00  8.6681319079797650e+00 0.0000000000000000e+00 -2.4144612202201126e+00  8.5749351234390598e+00 0.0000000000000000e+00 -2.3717573780714374e+00  8.4797981437283596e+00 0.0000000000000000e+00 -2.3212294962165205e+00  8.3841539963533585e+00 0.0000000000000000e+00 -2.2554849466214795e+00  8.2847695863139830e+00 0.0000000000000000e+00 -2.1927703121731876e+00  8.1835445891629188e+00 0.0000000000000000e+00 -2.1577398937604659e+00  8.0863347291452801e+00 0.0000000000000000e+00 -2.0977673647330759e+00  7.9867008367166168e+00 0.0000000000000000e+00 -2.0391234812657464e+00  7.8911705512781891e+00 0.0000000000000000e+00 -1.9856461641338370e+00  7.7932443426515876e+00 0.0000000000000000e+00 -1.9256768634077046e+00  7.6924107526868095e+00 0.0000000000000000e+00 -1.8837649850748726e+00  7.5962454061590137e+00 0.0000000000000000e+00 -1.8290685705425713e+00  7.4965230925210431e+00 0.0000000000000000e+00 -1.7693220284466074e+00  7.3932842531338254e+00 0.0000000000000000e+00 -1.7185082856863394e+00  7.2916417580515862e+00 0.0000000000000000e+00 -1.6804334403381134e+00  7.1921287569112176e+00 0.0000000000000000e+00 -1.6356793907085247e+00  7.0911255827600046e+00 0.0000000000000000e+00 -1.5925714880206807e+00  6.9969695856468581e+00 0.0000000000000000e+00 -1.5532115635740851e+00  6.8993017211050836e+00 0.0000000000000000e+00 -1.5072569642129310e+00  6.7994423421048049e+00 0.0000000000000000e+00 -1.4435537880690155e+00  6.6961569010158302e+00 0.0000000000000000e+00 -1.4075470977058859e+00  6.5916948839895761e+00 0.0000000000000000e+00 -1.3587375556998169e+00  6.4929958622512496e+00 0.0000000000000000e+00 -1.3285064506702937e+00  6.3918725053169556e+00 0.0000000000000000e+00 -1.2839513484412428e+00  6.2857733429456886e+00 0.0000000000000000e+00 -1.2352672789079355e+00  6.1848276699701019e+00 0.0000000000000000e+00 -1.1962754503758155e+00  6.0888907503447927e+00 0.0000000000000000e+00 -1.1455587374906002e+00  5.9929572545671075e+00 0.0000000000000000e+00 -1.1174020633791528e+00  5.8972029945863520e+00 0.0000000000000000e+00 -1.0716167635363851e+00  5.7945452236239170e+00 0.0000000000000000e+00 -1.0291603318139406e+00  5.7010689710195726e+00 0.0000000000000000e+00 -1.0120666095408004e+00  5.6023193123195725e+00 0.0000000000000000e+00 -9.7896564829736687e-01  5.4992420677337428e+00 0.0000000000000000e+00 -9.2864714758104239e-01  5.3970429621908922e+00 0.0000000000000000e+00 -9.0224935684260454e-01  5.2960428272195870e+00 0.0000000000000000e+00 -8.6623671343054520e-01  5.1869160353037644e+00 0.0000000000000000e+00 -8.3708213132056275e-01  5.0880070542991467e+00 0.0000000000000000e+00 -8.0729373527702453e-01  4.9870703440530662e+00 0.0000000000000000e+00 -7.9105924977836095e-01  4.8841623042654900e+00 0.0000000000000000e+00 -7.4865200043483182e-01  4.7845