<?xml version="1.0"?>
<VTKFile type="UnstructuredGrid"  version="0.1"  >
<UnstructuredGrid>
<Piece  NumberOfPoints="3069" NumberOfCells="12882">
<Points>
<DataArray  type="Float64"  NumberOfComponents="3"  format="ascii">0 0 0  0 0 4  0 5.65685415 0  50 0 4  50 5.65685415 0  50 0 0  0 0 1  0 0 2  0 0 3  0 1.04967844 3.90746784  0 2.0669806 3.632725  0 3.02052855 3.18424606  0 3.88091111 2.5758636  0 4.62159061 1.82634306  0 5.21972132 0.958802283  0 4.71404505 0  0 3.77123618 0  0 2.82842708 0  0 1.88561809 0  0 0.942809045 0  0.5 0 4  1 0 4  1.5 0 4  2 0 4  2.5 0 4  3 0 4  3.5 0 4  4 0 4  4.5 0 4  5 0 4  5.5 0 4  6 0 4  6.5 0 4  7 0 4  7.5 0 4  8 0 4  8.5 0 4  9 0 4  9.5 0 4  10 0 4  10.5 0 4  11 0 4  11.5 0 4  12 0 4  12.5 0 4  13 0 4  13.5 0 4  14 0 4  14.5 0 4  15 0 4  15.5 0 4  16 0 4  16.5 0 4  17 0 4  17.5 0 4  18 0 4  18.5 0 4  19 0 4  19.5 0 4  20 0 4  20.5 0 4  21 0 4  21.5 0 4  22 0 4  22.5 0 4  23 0 4  23.5 0 4  24 0 4  24.5 0 4  25 0 4  25.5 0 4  26 0 4  26.5 0 4  27 0 4  27.5 0 4  28 0 4  28.5 0 4  29 0 4  29.5 0 4  30 0 4  30.5 0 4  31 0 4  31.5 0 4  32 0 4  32.5 0 4  33 0 4  33.5 0 4  34 0 4  34.5 0 4  35 0 4  35.5 0 4  36 0 4  36.5 0 4  37 0 4  37.5 0 4  38 0 4  38.5 0 4  39 0 4  39.5 0 4  40 0 4  40.5 0 4  41 0 4  41.5 0 4  42 0 4  42.5 0 4  43 0 4  43.5 0 4  44 0 4  44.5 0 4  45 0 4  45.5 0 4  46 0 4  46.5 0 4  47 0 4  47.5 0 4  48 0 4  48.5 0 4  49 0 4  49.5 0 4  50 1.04967844 3.90746784  50 2.0669806 3.632725  50 3.02052855 3.18424606  50 3.88091111 2.5758636  50 4.62159061 1.82634306  50 5.21972132 0.958802283  49.5 5.65685415 0  49 5.65685415 0  48.5 5.65685415 0  48 5.65685415 0  47.5 5.65685415 0  47 5.65685415 0  46.5 5.65685415 0  46 5.65685415 0  45.5 5.65685415 0  45 5.65685415 0  44.5 5.65685415 0  44 5.65685415 0  43.5 5.65685415 0  43 5.65685415 0  42.5 5.65685415 0  42 5.65685415 0  41.5 5.65685415 0  41 5.65685415 0  40.5 5.65685415 0  40 5.65685415 0  39.5 5.65685415 0  39 5.65685415 0  38.5 5.65685415 0  38 5.65685415 0  37.5 5.65685415 0  37 5.65685415 0  36.5 5.65685415 0  36 5.65685415 0  35.5 5.65685415 0  35 5.65685415 0  34.5 5.65685415 0  34 5.65685415 0  33.5 5.65685415 0  33 5.65685415 0  32.5 5.65685415 0  32 5.65685415 0  31.5 5.65685415 0  31 5.65685415 0  30.5 5.65685415 0  30 5.65685415 0  29.5 5.65685415 0  29 5.65685415 0  28.5 5.65685415 0  28 5.65685415 0  27.5 5.65685415 0  27 5.65685415 0  26.5 5.65685415 0  26 5.65685415 0  25.5 5.65685415 0  25 5.65685415 0  24.5 5.65685415 0  24 5.65685415 0  23.5 5.65685415 0  23 5.65685415 0  22.5 5.65685415 0  22 5.65685415 0  21.5 5.65685415 0  21 5.65685415 0  20.5 5.65685415 0  20 5.65685415 0  19.5 5.65685415 0  19 5.65685415 0  18.5 5.65685415 0  18 5.65685415 0  17.5 5.65685415 0  17 5.65685415 0  16.5 5.65685415 0  16 5.65685415 0  15.5 5.65685415 0  15 5.65685415 0  14.5 5.65685415 0  14 5.65685415 0  13.5 5.65685415 0  13 5.65685415 0  12.5 5.65685415 0  12 5.65685415 0  11.5 5.65685415 0  11 5.65685415 0  10.5 5.65685415 0  10 5.65685415 0  9.5 5.65685415 0  9 5.65685415 0  8.5 5.65685415 0  8 5.65685415 0  7.5 5.65685415 0  7 5.65685415 0  6.5 5.65685415 0  6 5.65685415 0  5.5 5.65685415 0  5 5.65685415 0  4.5 5.65685415 0  4 5.65685415 0  3.5 5.65685415 0  3 5.65685415 0  2.5 5.65685415 0  2 5.65685415 0  1.5 5.65685415 0  1 5.65685415 0  0.5 5.65685415 0  50 4.71404505 0  50 3.77123618 0  50 2.82842708 0  50 1.88561809 0  50 0.942809045 0  49.5 0 0  49 0 0  48.5 0 0  48 0 0  47.5 0 0  47 0 0  46.5 0 0  46 0 0  45.5 0 0  45 0 0  44.5 0 0  44 0 0  43.5 0 0  43 0 0  42.5 0 0  42 0 0  41.5 0 0  41 0 0  40.5 0 0  40 0 0  39.5 0 0  39 0 0  38.5 0 0  38 0 0  37.5 0 0  37 0 0  36.5 0 0  36 0 0  35.5 0 0  35 0 0  34.5 0 0  34 0 0  33.5 0 0  33 0 0  32.5 0 0  32 0 0  31.5 0 0  31 0 0  30.5 0 0  30 0 0  29.5 0 0  29 0 0  28.5 0 0  28 0 0  27.5 0 0  27 0 0  26.5 0 0  26 0 0  25.5 0 0  25 0 0  24.5 0 0  24 0 0  23.5 0 0  23 0 0  22.5 0 0  22 0 0  21.5 0 0  21 0 0  20.5 0 0  20 0 0  19.5 0 0  19 0 0  18.5 0 0  18 0 0  17.5 0 0  17 0 0  16.5 0 0  16 0 0  15.5 0 0  15 0 0  14.5 0 0  14 0 0  13.5 0 0  13 0 0  12.5 0 0  12 0 0  11.5 0 0  11 0 0  10.5 0 0  10 0 0  9.5 0 0  9 0 0  8.5 0 0  8 0 0  7.5 0 0  7 0 0  6.5 0 0  6 0 0  5.5 0 0  5 0 0  4.5 0 0  4 0 0  3.5 0 0  3 0 0  2.5 0 0  2 0 0  1.5 0 0  1 0 0  0.5 0 0  50 0 1  50 0 2  50 0 3  0 2.33524275 0.893602192  0 2.87561393 1.93323028  0 4.2367816 0.876864135  0 2.00050235 2.65534091  0 0.981494486 2.34323239  0 3.78543234 1.61830366  0 3.30545568 0.887000024  0 0.812916458 1.58408713  0 1.71948838 1.71268857  0 1.28267908 0.8650629520000001  0 1.21973121 3.10775328  0.5 5.21972132 0.958802223  0.5 4.62159061 1.82634306  0.5 3.88091111 2.5758636  0.5 3.02052855 3.18424606  0.5 2.0669806 3.632725  0.5 1.04967844 3.90746784  1 5.21972132 0.958802223  1 4.62159061 1.82634306  1 3.88091111 2.5758636  1 3.02052855 3.18424606  1 2.0669806 3.632725  1 1.04967844 3.90746784  1.5 5.21972132 0.958802223  1.5 4.62159061 1.82634306  1.5 3.88091111 2.5758636  1.5 3.02052855 3.18424606  1.5 2.0669806 3.632725  1.5 1.04967844 3.90746784  2 5.21972132 0.958802223  2 4.62159061 1.82634306  2 3.88091111 2.5758636  2 3.02052855 3.18424606  2 2.0669806 3.632725  2 1.04967844 3.90746784  2.5 5.21972132 0.958802223  2.5 4.62159061 1.82634306  2.5 3.88091111 2.5758636  2.5 3.02052855 3.18424606  2.5 2.0669806 3.632725  2.5 1.04967844 3.90746784  3 5.21972132 0.958802223  3 4.62159061 1.82634306  3 3.88091111 2.5758636  3 3.02052855 3.18424606  3 2.0669806 3.632725  3 1.04967844 3.90746784  3.5 5.21972132 0.958802223  3.5 4.62159061 1.82634306  3.5 3.88091111 2.5758636  3.5 3.02052855 3.18424606  3.5 2.0669806 3.632725  3.5 1.04967844 3.90746784  4 5.21972132 0.958802223  4 4.62159061 1.82634306  4 3.88091111 2.5758636  4 3.02052855 3.18424606  4 2.0669806 3.632725  4 1.04967844 3.90746784  4.5 5.21972132 0.958802223  4.5 4.62159061 1.82634306  4.5 3.88091111 2.5758636  4.5 3.02052855 3.18424606  4.5 2.0669806 3.632725  4.5 1.04967844 3.90746784  5 5.21972132 0.958802223  5 4.62159061 1.82634306  5 3.88091111 2.5758636  5 3.02052855 3.18424606  5 2.0669806 3.632725  5 1.04967844 3.90746784  5.5 5.21972132 0.958802223  5.5 4.62159061 1.82634306  5.5 3.88091111 2.5758636  5.5 3.02052855 3.18424606  5.5 2.0669806 3.632725  5.5 1.04967844 3.90746784  6 5.21972132 0.958802223  6 4.62159061 1.82634306  6 3.88091111 2.5758636  6 3.02052855 3.18424606  6 2.0669806 3.632725  6 1.04967844 3.90746784  6.5 5.21972132 0.958802223  6.5 4.62159061 1.82634306  6.5 3.88091111 2.5758636  6.5 3.02052855 3.18424606  6.5 2.0669806 3.632725  6.5 1.04967844 3.90746784  7 5.21972132 0.958802223  7 4.62159061 1.82634306  7 3.88091111 2.5758636  7 3.02052855 3.18424606  7 2.0669806 3.632725  7 1.04967844 3.90746784  7.5 5.21972132 0.958802223  7.5 4.62159061 1.82634306  7.5 3.88091111 2.5758636  7.5 3.02052855 3.18424606  7.5 2.0669806 3.632725  7.5 1.04967844 3.90746784  8 5.21972132 0.958802223  8 4.62159061 1.82634306  8 3.88091111 2.5758636  8 3.02052855 3.18424606  8 2.0669806 3.632725  8 1.04967844 3.90746784  8.5 5.21972132 0.958802223  8.5 4.62159061 1.82634306  8.5 3.88091111 2.5758636  8.5 3.02052855 3.18424606  8.5 2.0669806 3.632725  8.5 1.04967844 3.90746784  9 5.21972132 0.958802223  9 4.62159061 1.82634306  9 3.88091111 2.5758636  9 3.02052855 3.18424606  9 2.0669806 3.632725  9 1.04967844 3.90746784  9.5 5.21972132 0.958802223  9.5 4.62159061 1.82634306  9.5 3.88091111 2.5758636  9.5 3.02052855 3.18424606  9.5 2.0669806 3.632725  9.5 1.04967844 3.90746784  10 5.21972132 0.958802223  10 4.62159061 1.82634306  10 3.88091111 2.5758636  10 3.02052855 3.18424606  10 2.0669806 3.632725  10 1.04967844 3.90746784  10.5 5.21972132 0.958802223  10.5 4.62159061 1.82634306  10.5 3.88091111 2.5758636  10.5 3.02052855 3.18424606  10.5 2.0669806 3.632725  10.5 1.04967844 3.90746784  11 5.21972132 0.958802223  11 4.62159061 1.82634306  11 3.88091111 2.5758636  11 3.02052855 3.18424606  11 2.0669806 3.632725  11 1.04967844 3.90746784  11.5 5.21972132 0.958802223  11.5 4.62159061 1.82634306  11.5 3.88091111 2.5758636  11.5 3.02052855 3.18424606  11.5 2.0669806 3.632725  11.5 1.04967844 3.90746784  12 5.21972132 0.958802223  12 4.62159061 1.82634306  12 3.88091111 2.5758636  12 3.02052855 3.18424606  12 2.0669806 3.632725  12 1.04967844 3.90746784  12.5 5.21972132 0.958802223  12.5 4.62159061 1.82634306  12.5 3.88091111 2.5758636  12.5 3.02052855 3.18424606  12.5 2.0669806 3.632725  12.5 1.04967844 3.90746784  13 5.21972132 0.958802223  13 4.62159061 1.82634306  13 3.88091111 2.5758636  13 3.02052855 3.18424606  13 2.0669806 3.632725  13 1.04967844 3.90746784  13.5 5.21972132 0.958802223  13.5 4.62159061 1.82634306  13.5 3.88091111 2.5758636  13.5 3.02052855 3.18424606  13.5 2.0669806 3.632725  13.5 1.04967844 3.90746784  14 5.21972132 0.958802223  14 4.62159061 1.82634306  14 3.88091111 2.5758636  14 3.02052855 3.18424606  14 2.0669806 3.632725  14 1.04967844 3.90746784  14.5 5.21972132 0.958802223  14.5 4.62159061 1.82634306  14.5 3.88091111 2.5758636  14.5 3.02052855 3.18424606  14.5 2.0669806 3.632725  14.5 1.04967844 3.90746784  15 5.21972132 0.958802223  15 4.62159061 1.82634306  15 3.88091111 2.5758636  15 3.02052855 3.18424606  15 2.0669806 3.632725  15 1.04967844 3.90746784  15.5 5.21972132 0.958802223  15.5 4.62159061 1.82634306  15.5 3.88091111 2.5758636  15.5 3.02052855 3.18424606  15.5 2.0669806 3.632725  15.5 1.04967844 3.90746784  16 5.21972132 0.958802223  16 4.62159061 1.82634306  16 3.88091111 2.5758636  16 3.02052855 3.18424606  16 2.0669806 3.632725  16 1.04967844 3.90746784  16.5 5.21972132 0.958802223  16.5 4.62159061 1.82634306  16.5 3.88091111 2.5758636  16.5 3.02052855 3.18424606  16.5 2.0669806 3.632725  16.5 1.04967844 3.90746784  17 5.21972132 0.958802223  17 4.62159061 1.82634306  17 3.88091111 2.5758636  17 3.02052855 3.18424606  17 2.0669806 3.632725  17 1.04967844 3.90746784  17.5 5.21972132 0.958802223  17.5 4.62159061 1.82634306  17.5 3.88091111 2.5758636  17.5 3.02052855 3.18424606  17.
[...]
<PointData  Vectors="f_261141-0"> 
<DataArray  type="Float64"  Name="f_261141-0"  NumberOfComponents="3" format="ascii">0.0000000000000000e+00 0.0000000000000000e+00 0.0000000000000000e+00  0.0000000000000000e+00 0.0000000000000000e+00 8.1408810706351575e-01  0.0000000000000000e+00 1.0525443118922002e+00 0.0000000000000000e+00  9.9809854171750860e+00 0.0000000000000000e+00 -1.9158427001376812e+00  9.2776158256175734e+00 1.1243280756676779e+00 -2.9459299127769034e+00  9.3939624427393191e+00 0.0000000000000000e+00 -2.8255368926479494e+00  0.0000000000000000e+00 0.0000000000000000e+00 1.7201173147831483e-01  0.0000000000000000e+00 0.0000000000000000e+00 3.9443399170913934e-01  0.0000000000000000e+00 0.0000000000000000e+00 6.3416541676832949e-01  0.0000000000000000e+00 2.3998772311152605e-01 7.8036122530656038e-01  0.0000000000000000e+00 4.2840939536075334e-01 6.9378978784781686e-01  0.0000000000000000e+00 6.0718538235508945e-01 5.9896980039286152e-01  0.0000000000000000e+00 7.6133060782682294e-01 4.7732489990805649e-01  0.0000000000000000e+00 8.8852451881588312e-01 3.2580217590130828e-01  0.0000000000000000e+00 9.8714708013096497e-01 1.6925232335868912e-01  0.0000000000000000e+00 8.8968892891535600e-01 0.0000000000000000e+00  0.0000000000000000e+00 7.2205227289474683e-01 0.0000000000000000e+00  0.0000000000000000e+00 5.5345959366640318e-01 0.0000000000000000e+00  0.0000000000000000e+00 3.7998474169219676e-01 0.0000000000000000e+00  0.0000000000000000e+00 1.9492473358680856e-01 0.0000000000000000e+00  9.7692819957886839e-02 0.0000000000000000e+00 8.1593261623272528e-01  1.9737165367972279e-01 0.0000000000000000e+00 8.1602874272662118e-01  2.9698944853425369e-01 0.0000000000000000e+00 8.1637489007504993e-01  3.9837168376653942e-01 0.0000000000000000e+00 8.1291714137012328e-01  4.9338687115717084e-01 0.0000000000000000e+00 8.1968513687883815e-01  5.9623775378958943e-01 0.0000000000000000e+00 8.1113658038877667e-01  6.9257468324239757e-01 0.0000000000000000e+00 8.0900743484775262e-01  7.9523746191483669e-01 0.0000000000000000e+00 7.9872434468045450e-01  8.9456653634003069e-01 0.0000000000000000e+00 7.9039311092739994e-01  9.9312979643630550e-01 0.0000000000000000e+00 7.8049370979475086e-01  1.0906045274438143e+00 0.0000000000000000e+00 7.7597310386916896e-01  1.1895717152802088e+00 0.0000000000000000e+00 7.7564852095743730e-01  1.2888367947683388e+00 0.0000000000000000e+00 7.7096505988601138e-01  1.3926632449034890e+00 0.0000000000000000e+00 7.5512277640705783e-01  1.4886888816244830e+00 0.0000000000000000e+00 7.5073556827896559e-01  1.5917240187740391e+00 0.0000000000000000e+00 7.4039488308067047e-01  1.6909393678128153e+00 0.0000000000000000e+00 7.3127235505035260e-01  1.7905415940154283e+00 0.0000000000000000e+00 7.1928065960865561e-01  1.8878815533585058e+00 0.0000000000000000e+00 7.1294423384421612e-01  1.9857011333000776e+00 0.0000000000000000e+00 7.0436639602117379e-01  2.0840312510701646e+00 0.0000000000000000e+00 7.0027417167006356e-01  2.1819263497782551e+00 0.0000000000000000e+00 6.8333256601573156e-01  2.2819655269649179e+00 0.0000000000000000e+00 6.7453383773488107e-01  2.3818737166548383e+00 0.0000000000000000e+00 6.5993327096416310e-01  2.4788464202359868e+00 0.0000000000000000e+00 6.5260938931403256e-01  2.5806656037968665e+00 0.0000000000000000e+00 6.3276462994127125e-01  2.6807803399129879e+00 0.0000000000000000e+00 6.1533632673954941e-01  2.7775998609453683e+00 0.0000000000000000e+00 6.0461407527232325e-01  2.8777254247162771e+00 0.0000000000000000e+00 5.8805211091956355e-01  2.9788599406973773e+00 0.0000000000000000e+00 5.6365191492443312e-01  3.0703348226628493e+00 0.0000000000000000e+00 5.6412458652287489e-01  3.1671144472400146e+00 0.0000000000000000e+00 5.4152621455662764e-01  3.2669237201682946e+00 0.0000000000000000e+00 5.1979545728601362e-01  3.3674517773254586e+00 0.0000000000000000e+00 4.9771255872874270e-01  3.4696671181464356e+00 0.0000000000000000e+00 4.7614177576123962e-01  3.5700842645542763e+00 0.0000000000000000e+00 4.5810035157692669e-01  3.6713319762466190e+00 0.0000000000000000e+00 4.3848140377609984e-01  3.7691829868077891e+00 0.0000000000000000e+00 4.2316722503014897e-01  3.8705917340171716e+00 0.0000000000000000e+00 3.9572885405495661e-01  3.9686521849049803e+00 0.0000000000000000e+00 3.7765224133979969e-01  4.0633627502968093e+00 0.0000000000000000e+00 3.6089781097580120e-01  4.1648575229574272e+00 0.0000000000000000e+00 3.3829151288937920e-01  4.2613038273936832e+00 0.0000000000000000e+00 3.1614187146153055e-01  4.3646091001920748e+00 0.0000000000000000e+00 2.8020104288442138e-01  4.4596120068046954e+00 0.0000000000000000e+00 2.5936142211466168e-01  4.5570928353141822e+00 0.0000000000000000e+00 2.3281559586659140e-01  4.6553890235349318e+00 0.0000000000000000e+00 2.1247614578865009e-01  4.7557177977405978e+00 0.0000000000000000e+00 1.8476570450768115e-01  4.8543802785283390e+00 0.0000000000000000e+00 1.5971662759623415e-01  4.9543491337874883e+00 0.0000000000000000e+00 1.3159635305552017e-01  5.0544360212087636e+00 0.0000000000000000e+00 9.9348963439945828e-02  5.1512043058569548e+00 0.0000000000000000e+00 7.6845089253524304e-02  5.2520588858427404e+00 0.0000000000000000e+00 4.0884726658067867e-02  5.3483101194113463e+00 0.0000000000000000e+00 1.6757358793946530e-02  5.4475194685362442e+00 0.0000000000000000e+00 -1.6408418064811296e-02  5.5498998773999171e+00 0.0000000000000000e+00 -4.7563642084586452e-02  5.6479160953280410e+00 0.0000000000000000e+00 -8.1656107517286067e-02  5.7442916350462738e+00 0.0000000000000000e+00 -1.1125796536140786e-01  5.8429617139412802e+00 0.0000000000000000e+00 -1.3963876135152434e-01  5.9439857584211069e+00 0.0000000000000000e+00 -1.7956596848986650e-01  6.0421004022056337e+00 0.0000000000000000e+00 -2.2007858141991499e-01  6.1384267298351300e+00 0.0000000000000000e+00 -2.4801575411759666e-01  6.2375909395289044e+00 0.0000000000000000e+00 -2.8639560108996065e-01  6.3367197823027501e+00 0.0000000000000000e+00 -3.2405137795349054e-01  6.4326114258481892e+00 0.0000000000000000e+00 -3.5070115749342617e-01  6.5339322189004800e+00 0.0000000000000000e+00 -3.8981627233773297e-01  6.6340412421000794e+00 0.0000000000000000e+00 -4.2748644821742471e-01  6.7300816286896072e+00 0.0000000000000000e+00 -4.6438334372753004e-01  6.8295322643210783e+00 0.0000000000000000e+00 -5.0722729897878682e-01  6.9257736771069771e+00 0.0000000000000000e+00 -5.4731762447017174e-01  7.0229286526026105e+00 0.0000000000000000e+00 -5.8464060932039807e-01  7.1202983567167291e+00 0.0000000000000000e+00 -6.2822408529469365e-01  7.2206919614693312e+00 0.0000000000000000e+00 -6.7659284800013264e-01  7.3191344326932359e+00 0.0000000000000000e+00 -7.1902266736691778e-01  7.4181920739168339e+00 0.0000000000000000e+00 -7.6011140684266665e-01  7.5138251624089145e+00 0.0000000000000000e+00 -8.0195881440104488e-01  7.6136117740010842e+00 0.0000000000000000e+00 -8.4745072201114813e-01  7.7099536460827451e+00 0.0000000000000000e+00 -8.8954383803292980e-01  7.8106144259153281e+00 0.0000000000000000e+00 -9.4330161858940997e-01  7.9072164092463026e+00 0.0000000000000000e+00 -9.8838236613027008e-01  8.0036594626955555e+00 0.0000000000000000e+00 -1.0324501056002315e+00  8.1055192141929346e+00 0.0000000000000000e+00 -1.0818623077914700e+00  8.2046856781997359e+00 0.0000000000000000e+00 -1.1322168117230802e+00  8.2994982925893463e+00 0.0000000000000000e+00 -1.1735639402751050e+00  8.3996410324466986e+00 0.0000000000000000e+00 -1.2281153198571941e+00  8.4954762283228806e+00 0.0000000000000000e+00 -1.2737651949103408e+00  8.5930654384949072e+00 0.0000000000000000e+00 -1.3199067040945123e+00  8.6911222160756090e+00 0.0000000000000000e+00 -1.3736735219807972e+00  8.7892374310086367e+00 0.0000000000000000e+00 -1.4300457556124591e+00  8.8846473826125507e+00 0.0000000000000000e+00 -1.4775950775990594e+00  8.9835392198463264e+00 0.0000000000000000e+00 -1.5332499410141032e+00  9.0788636810310219e+00 0.0000000000000000e+00 -1.5808862967582575e+00  9.1759789549888691e+00 0.0000000000000000e+00 -1.6296265829559373e+00  9.2724453025955089e+00 0.0000000000000000e+00 -1.6689348843564196e+00  9.3717847136085286e+00 0.0000000000000000e+00 -1.7060061131491935e+00  9.4788611891577066e+00 0.0000000000000000e+00 -1.7349472847132519e+00  9.5942472641724468e+00 0.0000000000000000e+00 -1.7595072737968782e+00  9.7189814028174180e+00 0.0000000000000000e+00 -1.7979986673093484e+00  9.8507375191345456e+00 0.0000000000000000e+00 -1.8537464401871027e+00  9.9481345527374625e+00 2.8870315415035380e-01 -1.9371178483338778e+00  9.8935183428420395e+00 5.4645704504797632e-01 -2.0372814590435340e+00  9.8065977764101255e+00 7.7028915013489496e-01 -2.1829065958691771e+00  9.6937184389564148e+00 9.3572506595575977e-01 -2.3625694201412202e+00  9.5633028591770923e+00 1.0481401856221939e+00 -2.5619206397412073e+00  9.4167055705605840e+00 1.1064096563034729e+00 -2.7582065313695749e+00  9.1899845124853776e+00 1.1091143258441218e+00 -2.8777400645797799e+00  9.1027980447018582e+00 1.0957929455379682e+00 -2.8058014116337726e+00  9.0169858287051738e+00 1.0852977156903787e+00 -2.7357268539407489e+00  8.9306822475746763e+00 1.0732702009544375e+00 -2.6639019549146701e+00  8.8462544819608055e+00 1.0639632049113412e+00 -2.5989177990190093e+00  8.7627131076566460e+00 1.0589302457549101e+00 -2.5367681768456207e+00  8.6793436297581561e+00 1.0538171539519423e+00 -2.4746783139849642e+00  8.5950349675232314e+00 1.0522333337905412e+00 -2.4139226698983034e+00  8.5097622512660305e+00 1.0505913894318437e+00 -2.3528751540850439e+00  8.4246267694295440e+00 1.0494458039126833e+00 -2.2939890583724138e+00  8.3380279953324621e+00 1.0496152191861869e+00 -2.2352181793322337e+00  8.2507640828682014e+00 1.0528175790891323e+00 -2.1803220283245723e+00  8.1624872562575224e+00 1.0526735770863531e+00 -2.1244399403743217e+00  8.0735360009690513e+00 1.0523617148638025e+00 -2.0704675762951070e+00  7.9847185153878089e+00 1.0547857965391150e+00 -2.0212719137335267e+00  7.8924063256648207e+00 1.0537260378366291e+00 -1.9701435171009676e+00  7.8030885019784426e+00 1.0551977970693200e+00 -1.9177606607580124e+00  7.7124444080974524e+00 1.0580997644304262e+00 -1.8675101789912201e+00  7.6221486075377696e+00 1.0592096980930648e+00 -1.8192531837544290e+00  7.5310538314540105e+00 1.0616778601429089e+00 -1.7705824395753211e+00  7.4396961695525414e+00 1.0632744676498938e+00 -1.7220643898944483e+00  7.3477950613232803e+00 1.0637683039824353e+00 -1.6736814727001503e+00  7.2552848297172767e+00 1.0656408919055429e+00 -1.6281445366247944e+00  7.1630075990780320e+00 1.0628071192645840e+00 -1.5832660908681664e+00  7.0706668446378247e+00 1.0641539989566871e+00 -1.5410565059173067e+00  6.9780835070336984e+00 1.0649215887439514e+00 -1.4987005127801829e+00  6.8848259494551405e+00 1.0653954902136669e+00 -1.4570519443298986e+00  6.7915791112205479e+00 1.0649377521968666e+00 -1.4160565591241094e+00  6.6982382238450020e+00 1.0663628103378699e+00 -1.3764499254076803e+00  6.6048864588629446e+00 1.0651626404701571e+00 -1.3355813972149466e+00  6.5112621879116661e+00 1.0655964436488030e+00 -1.2963508989577610e+00  6.4177249605220270e+00 1.0670492958822599e+00 -1.2583539868972449e+00  6.3241624246650137e+00 1.0651335717903063e+00 -1.2203056489633208e+00  6.2302605036481564e+00 1.0637605054666355e+00 -1.1831226484107817e+00  6.1367291888961431e+00 1.0632297811911433e+00 -1.1467964804808304e+00  6.0431292468810680e+00 1.0622631753027731e+00 -1.1104788481280887e+00  5.9498017161587597e+00 1.0614802972989086e+00 -1.0744699078549120e+00  5.8560292491394614e+00 1.0635090553196920e+00 -1.0392514019688484e+00  5.7621575075209392e+00 1.0652096352849381e+00 -1.0054722471431781e+00  5.6685368168628480e+00 1.0625094988306136e+00 -9.7132426641111780e-01  5.5746188387425928e+00 1.0617952899540199e+00 -9.3810601617156242e-01  5.4808291398930793e+00 1.0630768988605652e+00 -9.0613512967530085e-01  5.3875412029140897e+00 1.0607377388725341e+00 -8.7286536298188544e-01  5.2936624639833347e+00 1.0617143679545658e+00 -8.4096655886804828e-01  5.1998036593745551e+00 1.0628922178273927e+00 -8.1022857568821915e-01  5.1061008901969691e+00 1.0622679842391596e+00 -7.7876328233826131e-01  5.0129556462694511e+00 1.0623817159826716e+00 -7.4864514070732835e-01  4.9190943524434596e+00 1.0636588444718602e+00 -7.1952289292842342e-01  4.8251894449142831e+00 1.0622371739876577e+00 -6.8886616275362866e-01  4.7306879998064204e+00 1.0631633333002539e+00 -6.5869039639507931e-01  4.6365873229527237e+00 1.0640642334417174e+00 -6.3195158998805323e-01  4.5417897045263000e+00 1.0651586295719602e+00 -6.0672343935406459e-01  4.4469306984309123e+00 1.0625675733493620e+00 -5.8072393326622584e-01  4.3537444303689918e+00 1.0640027952716189e+00 -5.5437380167217032e-01  4.2599116573368478e+00 1.0640819250686402e+00 -5.3060682678478788e-01  4.1654054027842085e+00 1.0642185522365648e+00 -5.0560841605198781e-01  4.0710416868877459e+00 1.0628996467508760e+00 -4.8025314164882432e-01  3.9766770472518282e+00 1.0646083245785385e+00 -4.5728050943075593e-01  3.8828019913320251e+00 1.0641964437932614e+00 -4.3542779330634762e-01  3.7891849111036886e+00 1.0643058300326693e+00 -4.1439417254082267e-01  3.6945127777665507e+00 1.0662208297537372e+00 -3.9431265667657739e-01  3.6001563668472754e+00 1.0641023872641520e+00 -3.7377753679420667e-01  3.5051148384551820e+00 1.0633491455187429e+00 -3.5373894843999915e-01  3.4105341293740086e+00 1.0642124272612949e+00 -3.3563714207798406e-01  3.3159214924953675e+00 1.0628907629669619e+00 -3.1653634196249170e-01  3.2212441291804965e+00 1.0592253572547248e+00 -2.9689551307145917e-01  3.1269455047423067e+00 1.0598194460898767e+00 -2.8168928460794923e-01  3.0324349918564959e+00 1.0585454807364700e+00 -2.6509326341227907e-01  2.9381766639669360e+00 1.0594386182703084e+00 -2.4859131990278543e-01  2.8440615635205235e+00 1.0595779622747810e+00 -2.3178346897723975e-01  2.7493367024561226e+00 1.0597401265172408e+00 -2.1491018294514910e-01  2.6543655051268873e+00 1.0598394769983071e+00 -1.9905124841814498e-01  2.5596770411178866e+00 1.0609828924426710e+00 -1.8505525674948489e-01  2.4651181279582932e+00 1.0611318713411353e+00 -1.7062682100586821e-01  2.3704119911539929e+00 1.0613881773747611e+00 -1.5642479461390302e-01  2.2760344467891649e+00 1.0601357417553179e+00 -1.4248752823275090e-01  2.1817723817587940e+00 1.0600873677008054e+00 -1.3054245654904170e-01  2.0875191700973335e+00 1.0615024525924626e+00 -1.1902426963822935e-01  1.9924345748365000e+00 1.0615651234367922e+00 -1.0760255301233358e-01  1.8972985050849602e+00 1.0604401415666842e+00 -9.4932497505208713e-02  1.8025445706397434e+00 1.0623501473765837e+00 -8.4907790679228559e-02  1.7072738803358740e+00 1.0633993246049473e+00 -7.4660058969322096e-02  1.6123660103120294e+00 1.0605298811522088e+00 -6.3532334736700960e-02  1.5174518867516422e+00 1.0608727264549287e+00 -5.5591530425404649e-02  1.4230778446475352e+00 1.0604721489003390e+00 -4.8381837820199114e-02  1.3285475009546215e+00 1.0609358202036570e+00 -4.0722780605333853e-02  1.2339351966075556e+00 1.0602218645267714e+00 -3.1933415002513781e-02  1.1392414057555194e+00 1.0623213627036314e+00 -2.6574638160098422e-02  1.0444364556245207e+00 1.0628250552076965e+00 -2.0992977700226140e-02  9.4949636517475111e-01 1.0626379279736380e+00 -1.5540042358893840e-02  8.5419636241493357e-01 1.0617891083596673e+00 -1.1185362560467536e-02  7.5923977154727873e-01 1.0611224977503546e+00 -7.9844449386928251e-03  6.6393632817832460e-01 1.0609678670803704e+00 -5.2369768404628208e-03  5.6837938715207692e-01 1.0596111940218187e+00 -1.6335250060837401e-03  4.7356040330910876e-01 1.0583085723340073e+00 6.0598488474019891e-05  3.7856672051243911e-01 1.0586852009891983e+00 -4.7025589449688795e-04  2.8362656651567381e-01 1.0553997911681607e+00 1.4551216810048496e-04  1.8882885245567571e-01 1.0543384633319004e+00 0.0000000000000000e+00  9.4245827103715929e-02 1.0517954057763621e+00 0.0000000000000000e+00  9.3048987362202737e+00 9.5491665728229780e-01 -2.9053472493820576e+00  9.3287148853394122e+00 7.7206881566893892e-01 -2.8780236803758004e+00  9.3559158506490832e+00 5.9403688999360793e-01 -2.8576591901092656e+00  9.3674306325940986e+00 3.9126641978951587e-01 -2.8478280749941809e+00  9.3836903081793768e+00 1.9114347403446957e-01 -2.8364414350729885e+00  9.3098933813755291e+00 0.0000000000000000e+00 -2.7597291992331345e+00  9.2228553519550438e+00 0.0000000000000000e+00 -2.6998529289754583e+00  9.1329531951159666e+00 0.0000000000000000e+00 -2.6349678172468889e+00  9.0403942215351680e+00 0.0000000000000000e+00 -2.5779307241950749e+00  8.9485436384104844e+00 0.0000000000000000e+00 -2.5267986087149694e+00  8.8541877140150476e+00 0.0000000000000000e+00 -2.4708671591607207e+00  8.7622397410356729e+00 0.0000000000000000e+00 -2.4222938533514999e+00  8.6663903544336272e+00 0.0000000000000000e+00 -2.3737684970717514e+00  8.5702672649519513e+00 0.0000000000000000e+00 -2.3173227932449598e+00  8.4755403299423282e+00 0.0000000000000000e+00 -2.2759402023083926e+00  8.3805843955195716e+00 0.0000000000000000e+00 -2.2289978707915008e+00  8.2875978750015857e+00 0.0000000000000000e+00 -2.1777682774495988e+00  8.1940959564456151e+00 0.0000000000000000e+00 -2.1240003336205917e+00  8.0982007798781055e+00 0.0000000000000000e+00 -2.0712471210915950e+00  8.0053844938171981e+00 0.0000000000000000e+00 -2.0314863965192762e+00  7.9133049471574592e+00 0.0000000000000000e+00 -1.9867219122211019e+00  7.8212741364083689e+00 0.0000000000000000e+00 -1.9359824089730462e+00  7.7257404141668449e+00 0.0000000000000000e+00 -1.8842336423518771e+00  7.6301991610507187e+00 0.0000000000000000e+00 -1.8487113657736394e+00  7.5376978459533595e+00 0.0000000000000000e+00 -1.7996547441791990e+00  7.4437349845217646e+00 0.0000000000000000e+00 -1.7508422001232444e+00  7.3525467884348990e+00 0.0000000000000000e+00 -1.7104615936724228e+00  7.2590425225365154e+00 0.0000000000000000e+00 -1.6603139600946670e+00  7.1643200153778093e+00 0.0000000000000000e+00 -1.6217849189484108e+00  7.0729250475243930e+00 0.0000000000000000e+00 -1.5782660528530359e+00  6.9799995380693955e+00 0.0000000000000000e+00 -1.5317145979871210e+00  6.8848877815100646e+00 0.0000000000000000e+00 -1.4875599997423081e+00  6.7902180715425207e+00 0.0000000000000000e+00 -1.4527754153970178e+00  6.6964467936699350e+00 0.0000000000000000e+00 -1.4102426819767553e+00  6.6024129598097581e+00 0.0000000000000000e+00 -1.3743395090911950e+00  6.5117343503665319e+00 0.0000000000000000e+00 -1.3382982591920729e+00  6.4191444346522948e+00 0.0000000000000000e+00 -1.2972715143975431e+00  6.3253836308317446e+00 0.0000000000000000e+00 -1.2491040849260850e+00  6.2301945592387549e+00 0.0000000000000000e+00 -1.2164805495027460e+00  6.1351261081396595e+00 0.0000000000000000e+00 -1.1721785109400100e+00  6.0430150311273740e+00 0.0000000000000000e+00 -1.1442725238741178e+00  5.9487900569080896e+00 0.0000000000000000e+00 -1.1042708710298397e+00  5.8520526181533699e+00 0.0000000000000000e+00 -1.0650444306625313e+00  5.7577118634638182e+00 0.0000000000000000e+00 -1.0342659435518853e+00  5.6656161759646055e+00 0.0000000000000000e+00 -9.9489497044523745e-01  5.5740408723180996e+00 0.0000000000000000e+00 -9.6879309574230221e-01  5.4826770963861309e+00 0.0000000000000000e+00 -9.3163949161620463e-01  5.3875140335462488e+00 0.0000000000000000e+00 -8.9489017211632238e-01  5.2965785250074653e+00 0.0000000000000000e+00 -8.7253589100582851e-01  5.2040385601100665e+00 0.0000000000000000e+00 -8.4082029226154553e-01  5.1092772939754969e+00 0.0000000000000000e+00 -8.0196117950998480e-01  5.0154197001640366e+00 0.0000000000000000e+00 -7.7798479785682040e-01  4.9205444407384045e+00 0.0000000000000000e+00 -7.4668759060120427e-01  4.8240206132262733e+00 0.0000000000000000e+00 -7.2289732061789802e-01  4.7311225631439617e+00 0.0000000000000000e+00 -6.9472657813559824e-01  4.6370315398402644e+00 0.0000000000000000e+00 -6.7083327182158237e-01  4.5420136791724381e+00 0.0000000000000000e+00 -6.3777073194207146e-01  4.44