<?xml version="1.0"?>
<VTKFile type="UnstructuredGrid"  version="0.1"  >
<UnstructuredGrid>
<Piece  NumberOfPoints="3069" NumberOfCells="12882">
<Points>
<DataArray  type="Float64"  NumberOfComponents="3"  format="ascii">0 0 0  0 0 4  0 5.65685415 0  50 0 4  50 5.65685415 0  50 0 0  0 0 1  0 0 2  0 0 3  0 1.04967844 3.90746784  0 2.0669806 3.632725  0 3.02052855 3.18424606  0 3.88091111 2.5758636  0 4.62159061 1.82634306  0 5.21972132 0.958802283  0 4.71404505 0  0 3.77123618 0  0 2.82842708 0  0 1.88561809 0  0 0.942809045 0  0.5 0 4  1 0 4  1.5 0 4  2 0 4  2.5 0 4  3 0 4  3.5 0 4  4 0 4  4.5 0 4  5 0 4  5.5 0 4  6 0 4  6.5 0 4  7 0 4  7.5 0 4  8 0 4  8.5 0 4  9 0 4  9.5 0 4  10 0 4  10.5 0 4  11 0 4  11.5 0 4  12 0 4  12.5 0 4  13 0 4  13.5 0 4  14 0 4  14.5 0 4  15 0 4  15.5 0 4  16 0 4  16.5 0 4  17 0 4  17.5 0 4  18 0 4  18.5 0 4  19 0 4  19.5 0 4  20 0 4  20.5 0 4  21 0 4  21.5 0 4  22 0 4  22.5 0 4  23 0 4  23.5 0 4  24 0 4  24.5 0 4  25 0 4  25.5 0 4  26 0 4  26.5 0 4  27 0 4  27.5 0 4  28 0 4  28.5 0 4  29 0 4  29.5 0 4  30 0 4  30.5 0 4  31 0 4  31.5 0 4  32 0 4  32.5 0 4  33 0 4  33.5 0 4  34 0 4  34.5 0 4  35 0 4  35.5 0 4  36 0 4  36.5 0 4  37 0 4  37.5 0 4  38 0 4  38.5 0 4  39 0 4  39.5 0 4  40 0 4  40.5 0 4  41 0 4  41.5 0 4  42 0 4  42.5 0 4  43 0 4  43.5 0 4  44 0 4  44.5 0 4  45 0 4  45.5 0 4  46 0 4  46.5 0 4  47 0 4  47.5 0 4  48 0 4  48.5 0 4  49 0 4  49.5 0 4  50 1.04967844 3.90746784  50 2.0669806 3.632725  50 3.02052855 3.18424606  50 3.88091111 2.5758636  50 4.62159061 1.82634306  50 5.21972132 0.958802283  49.5 5.65685415 0  49 5.65685415 0  48.5 5.65685415 0  48 5.65685415 0  47.5 5.65685415 0  47 5.65685415 0  46.5 5.65685415 0  46 5.65685415 0  45.5 5.65685415 0  45 5.65685415 0  44.5 5.65685415 0  44 5.65685415 0  43.5 5.65685415 0  43 5.65685415 0  42.5 5.65685415 0  42 5.65685415 0  41.5 5.65685415 0  41 5.65685415 0  40.5 5.65685415 0  40 5.65685415 0  39.5 5.65685415 0  39 5.65685415 0  38.5 5.65685415 0  38 5.65685415 0  37.5 5.65685415 0  37 5.65685415 0  36.5 5.65685415 0  36 5.65685415 0  35.5 5.65685415 0  35 5.65685415 0  34.5 5.65685415 0  34 5.65685415 0  33.5 5.65685415 0  33 5.65685415 0  32.5 5.65685415 0  32 5.65685415 0  31.5 5.65685415 0  31 5.65685415 0  30.5 5.65685415 0  30 5.65685415 0  29.5 5.65685415 0  29 5.65685415 0  28.5 5.65685415 0  28 5.65685415 0  27.5 5.65685415 0  27 5.65685415 0  26.5 5.65685415 0  26 5.65685415 0  25.5 5.65685415 0  25 5.65685415 0  24.5 5.65685415 0  24 5.65685415 0  23.5 5.65685415 0  23 5.65685415 0  22.5 5.65685415 0  22 5.65685415 0  21.5 5.65685415 0  21 5.65685415 0  20.5 5.65685415 0  20 5.65685415 0  19.5 5.65685415 0  19 5.65685415 0  18.5 5.65685415 0  18 5.65685415 0  17.5 5.65685415 0  17 5.65685415 0  16.5 5.65685415 0  16 5.65685415 0  15.5 5.65685415 0  15 5.65685415 0  14.5 5.65685415 0  14 5.65685415 0  13.5 5.65685415 0  13 5.65685415 0  12.5 5.65685415 0  12 5.65685415 0  11.5 5.65685415 0  11 5.65685415 0  10.5 5.65685415 0  10 5.65685415 0  9.5 5.65685415 0  9 5.65685415 0  8.5 5.65685415 0  8 5.65685415 0  7.5 5.65685415 0  7 5.65685415 0  6.5 5.65685415 0  6 5.65685415 0  5.5 5.65685415 0  5 5.65685415 0  4.5 5.65685415 0  4 5.65685415 0  3.5 5.65685415 0  3 5.65685415 0  2.5 5.65685415 0  2 5.65685415 0  1.5 5.65685415 0  1 5.65685415 0  0.5 5.65685415 0  50 4.71404505 0  50 3.77123618 0  50 2.82842708 0  50 1.88561809 0  50 0.942809045 0  49.5 0 0  49 0 0  48.5 0 0  48 0 0  47.5 0 0  47 0 0  46.5 0 0  46 0 0  45.5 0 0  45 0 0  44.5 0 0  44 0 0  43.5 0 0  43 0 0  42.5 0 0  42 0 0  41.5 0 0  41 0 0  40.5 0 0  40 0 0  39.5 0 0  39 0 0  38.5 0 0  38 0 0  37.5 0 0  37 0 0  36.5 0 0  36 0 0  35.5 0 0  35 0 0  34.5 0 0  34 0 0  33.5 0 0  33 0 0  32.5 0 0  32 0 0  31.5 0 0  31 0 0  30.5 0 0  30 0 0  29.5 0 0  29 0 0  28.5 0 0  28 0 0  27.5 0 0  27 0 0  26.5 0 0  26 0 0  25.5 0 0  25 0 0  24.5 0 0  24 0 0  23.5 0 0  23 0 0  22.5 0 0  22 0 0  21.5 0 0  21 0 0  20.5 0 0  20 0 0  19.5 0 0  19 0 0  18.5 0 0  18 0 0  17.5 0 0  17 0 0  16.5 0 0  16 0 0  15.5 0 0  15 0 0  14.5 0 0  14 0 0  13.5 0 0  13 0 0  12.5 0 0  12 0 0  11.5 0 0  11 0 0  10.5 0 0  10 0 0  9.5 0 0  9 0 0  8.5 0 0  8 0 0  7.5 0 0  7 0 0  6.5 0 0  6 0 0  5.5 0 0  5 0 0  4.5 0 0  4 0 0  3.5 0 0  3 0 0  2.5 0 0  2 0 0  1.5 0 0  1 0 0  0.5 0 0  50 0 1  50 0 2  50 0 3  0 2.33524275 0.893602192  0 2.87561393 1.93323028  0 4.2367816 0.876864135  0 2.00050235 2.65534091  0 0.981494486 2.34323239  0 3.78543234 1.61830366  0 3.30545568 0.887000024  0 0.812916458 1.58408713  0 1.71948838 1.71268857  0 1.28267908 0.8650629520000001  0 1.21973121 3.10775328  0.5 5.21972132 0.958802223  0.5 4.62159061 1.82634306  0.5 3.88091111 2.5758636  0.5 3.02052855 3.18424606  0.5 2.0669806 3.632725  0.5 1.04967844 3.90746784  1 5.21972132 0.958802223  1 4.62159061 1.82634306  1 3.88091111 2.5758636  1 3.02052855 3.18424606  1 2.0669806 3.632725  1 1.04967844 3.90746784  1.5 5.21972132 0.958802223  1.5 4.62159061 1.82634306  1.5 3.88091111 2.5758636  1.5 3.02052855 3.18424606  1.5 2.0669806 3.632725  1.5 1.04967844 3.90746784  2 5.21972132 0.958802223  2 4.62159061 1.82634306  2 3.88091111 2.5758636  2 3.02052855 3.18424606  2 2.0669806 3.632725  2 1.04967844 3.90746784  2.5 5.21972132 0.958802223  2.5 4.62159061 1.82634306  2.5 3.88091111 2.5758636  2.5 3.02052855 3.18424606  2.5 2.0669806 3.632725  2.5 1.04967844 3.90746784  3 5.21972132 0.958802223  3 4.62159061 1.82634306  3 3.88091111 2.5758636  3 3.02052855 3.18424606  3 2.0669806 3.632725  3 1.04967844 3.90746784  3.5 5.21972132 0.958802223  3.5 4.62159061 1.82634306  3.5 3.88091111 2.5758636  3.5 3.02052855 3.18424606  3.5 2.0669806 3.632725  3.5 1.04967844 3.90746784  4 5.21972132 0.958802223  4 4.62159061 1.82634306  4 3.88091111 2.5758636  4 3.02052855 3.18424606  4 2.0669806 3.632725  4 1.04967844 3.90746784  4.5 5.21972132 0.958802223  4.5 4.62159061 1.82634306  4.5 3.88091111 2.5758636  4.5 3.02052855 3.18424606  4.5 2.0669806 3.632725  4.5 1.04967844 3.90746784  5 5.21972132 0.958802223  5 4.62159061 1.82634306  5 3.88091111 2.5758636  5 3.02052855 3.18424606  5 2.0669806 3.632725  5 1.04967844 3.90746784  5.5 5.21972132 0.958802223  5.5 4.62159061 1.82634306  5.5 3.88091111 2.5758636  5.5 3.02052855 3.18424606  5.5 2.0669806 3.632725  5.5 1.04967844 3.90746784  6 5.21972132 0.958802223  6 4.62159061 1.82634306  6 3.88091111 2.5758636  6 3.02052855 3.18424606  6 2.0669806 3.632725  6 1.04967844 3.90746784  6.5 5.21972132 0.958802223  6.5 4.62159061 1.82634306  6.5 3.88091111 2.5758636  6.5 3.02052855 3.18424606  6.5 2.0669806 3.632725  6.5 1.04967844 3.90746784  7 5.21972132 0.958802223  7 4.62159061 1.82634306  7 3.88091111 2.5758636  7 3.02052855 3.18424606  7 2.0669806 3.632725  7 1.04967844 3.90746784  7.5 5.21972132 0.958802223  7.5 4.62159061 1.82634306  7.5 3.88091111 2.5758636  7.5 3.02052855 3.18424606  7.5 2.0669806 3.632725  7.5 1.04967844 3.90746784  8 5.21972132 0.958802223  8 4.62159061 1.82634306  8 3.88091111 2.5758636  8 3.02052855 3.18424606  8 2.0669806 3.632725  8 1.04967844 3.90746784  8.5 5.21972132 0.958802223  8.5 4.62159061 1.82634306  8.5 3.88091111 2.5758636  8.5 3.02052855 3.18424606  8.5 2.0669806 3.632725  8.5 1.04967844 3.90746784  9 5.21972132 0.958802223  9 4.62159061 1.82634306  9 3.88091111 2.5758636  9 3.02052855 3.18424606  9 2.0669806 3.632725  9 1.04967844 3.90746784  9.5 5.21972132 0.958802223  9.5 4.62159061 1.82634306  9.5 3.88091111 2.5758636  9.5 3.02052855 3.18424606  9.5 2.0669806 3.632725  9.5 1.04967844 3.90746784  10 5.21972132 0.958802223  10 4.62159061 1.82634306  10 3.88091111 2.5758636  10 3.02052855 3.18424606  10 2.0669806 3.632725  10 1.04967844 3.90746784  10.5 5.21972132 0.958802223  10.5 4.62159061 1.82634306  10.5 3.88091111 2.5758636  10.5 3.02052855 3.18424606  10.5 2.0669806 3.632725  10.5 1.04967844 3.90746784  11 5.21972132 0.958802223  11 4.62159061 1.82634306  11 3.88091111 2.5758636  11 3.02052855 3.18424606  11 2.0669806 3.632725  11 1.04967844 3.90746784  11.5 5.21972132 0.958802223  11.5 4.62159061 1.82634306  11.5 3.88091111 2.5758636  11.5 3.02052855 3.18424606  11.5 2.0669806 3.632725  11.5 1.04967844 3.90746784  12 5.21972132 0.958802223  12 4.62159061 1.82634306  12 3.88091111 2.5758636  12 3.02052855 3.18424606  12 2.0669806 3.632725  12 1.04967844 3.90746784  12.5 5.21972132 0.958802223  12.5 4.62159061 1.82634306  12.5 3.88091111 2.5758636  12.5 3.02052855 3.18424606  12.5 2.0669806 3.632725  12.5 1.04967844 3.90746784  13 5.21972132 0.958802223  13 4.62159061 1.82634306  13 3.88091111 2.5758636  13 3.02052855 3.18424606  13 2.0669806 3.632725  13 1.04967844 3.90746784  13.5 5.21972132 0.958802223  13.5 4.62159061 1.82634306  13.5 3.88091111 2.5758636  13.5 3.02052855 3.18424606  13.5 2.0669806 3.632725  13.5 1.04967844 3.90746784  14 5.21972132 0.958802223  14 4.62159061 1.82634306  14 3.88091111 2.5758636  14 3.02052855 3.18424606  14 2.0669806 3.632725  14 1.04967844 3.90746784  14.5 5.21972132 0.958802223  14.5 4.62159061 1.82634306  14.5 3.88091111 2.5758636  14.5 3.02052855 3.18424606  14.5 2.0669806 3.632725  14.5 1.04967844 3.90746784  15 5.21972132 0.958802223  15 4.62159061 1.82634306  15 3.88091111 2.5758636  15 3.02052855 3.18424606  15 2.0669806 3.632725  15 1.04967844 3.90746784  15.5 5.21972132 0.958802223  15.5 4.62159061 1.82634306  15.5 3.88091111 2.5758636  15.5 3.02052855 3.18424606  15.5 2.0669806 3.632725  15.5 1.04967844 3.90746784  16 5.21972132 0.958802223  16 4.62159061 1.82634306  16 3.88091111 2.5758636  16 3.02052855 3.18424606  16 2.0669806 3.632725  16 1.04967844 3.90746784  16.5 5.21972132 0.958802223  16.5 4.62159061 1.82634306  16.5 3.88091111 2.5758636  16.5 3.02052855 3.18424606  16.5 2.0669806 3.632725  16.5 1.04967844 3.90746784  17 5.21972132 0.958802223  17 4.62159061 1.82634306  17 3.88091111 2.5758636  17 3.02052855 3.18424606  17 2.0669806 3.632725  17 1.04967844 3.90746784  17.5 5.21972132 0.958802223  17.5 4.62159061 1.82634306  17.5 3.88091111 2.5758636  17.5 3.02052855 3.18424606  17.
[...]
<PointData  Vectors="f_261141-0"> 
<DataArray  type="Float64"  Name="f_261141-0"  NumberOfComponents="3" format="ascii">0.0000000000000000e+00 0.0000000000000000e+00 0.0000000000000000e+00  0.0000000000000000e+00 0.0000000000000000e+00 2.3841249232395181e-01  0.0000000000000000e+00 4.5058533203986523e-01 0.0000000000000000e+00  3.0404455866758591e+00 0.0000000000000000e+00 3.6754816548167373e+00  3.7689450438249783e+00 3.7140336497592474e-01 3.6753622025724493e+00  3.6728214045395919e+00 0.0000000000000000e+00 3.5638038529788103e+00  0.0000000000000000e+00 0.0000000000000000e+00 8.7835496597197110e-02  0.0000000000000000e+00 0.0000000000000000e+00 1.3090607257814604e-01  0.0000000000000000e+00 0.0000000000000000e+00 1.5873637137508503e-01  0.0000000000000000e+00 3.8356673564336745e-02 2.4237967716202635e-01  0.0000000000000000e+00 1.1309161450541498e-01 2.6371788883451369e-01  0.0000000000000000e+00 1.8854494657148804e-01 2.4270301876252234e-01  0.0000000000000000e+00 2.6189847680365924e-01 2.0721236014447131e-01  0.0000000000000000e+00 3.3685219026454083e-01 1.6229757864850225e-01  0.0000000000000000e+00 4.0413262464885275e-01 8.6771924832782066e-02  0.0000000000000000e+00 3.6276189214217480e-01 0.0000000000000000e+00  0.0000000000000000e+00 2.7543120265680332e-01 0.0000000000000000e+00  0.0000000000000000e+00 1.9351421002284205e-01 0.0000000000000000e+00  0.0000000000000000e+00 1.2111123706587439e-01 0.0000000000000000e+00  0.0000000000000000e+00 5.7955753519505111e-02 0.0000000000000000e+00  3.4208032959825788e-02 0.0000000000000000e+00 2.3899706268948620e-01  6.5093649686953012e-02 0.0000000000000000e+00 2.3706587072865087e-01  9.7249969113568188e-02 0.0000000000000000e+00 2.3721005383757954e-01  1.2979144597475367e-01 0.0000000000000000e+00 2.3895382711674146e-01  1.6518953416419968e-01 0.0000000000000000e+00 2.3864998894070774e-01  1.9584790298826027e-01 0.0000000000000000e+00 2.4503374786453611e-01  2.3062883384613489e-01 0.0000000000000000e+00 2.4973600900352308e-01  2.6152687856918766e-01 0.0000000000000000e+00 2.5759642904461894e-01  2.9430269481725990e-01 0.0000000000000000e+00 2.6792535307738563e-01  3.2700974131251770e-01 0.0000000000000000e+00 2.8016832388716317e-01  3.6140625766541062e-01 0.0000000000000000e+00 2.8900873795374837e-01  3.9553470952707875e-01 0.0000000000000000e+00 2.8863871073752662e-01  4.2790151059161519e-01 0.0000000000000000e+00 2.9802416685605210e-01  4.5792523057018242e-01 0.0000000000000000e+00 3.1099443720987496e-01  4.9536011800639468e-01 0.0000000000000000e+00 3.1804116243776820e-01  5.2467082682260324e-01 0.0000000000000000e+00 3.3034254033733179e-01  5.5707826327178267e-01 0.0000000000000000e+00 3.4279474719502062e-01  5.8943335591632762e-01 0.0000000000000000e+00 3.5815414147367269e-01  6.2367270688364995e-01 0.0000000000000000e+00 3.6814910543314933e-01  6.5750047227967778e-01 0.0000000000000000e+00 3.7873797149473232e-01  6.9054152662600565e-01 0.0000000000000000e+00 3.8892473945283740e-01  7.2581383669320898e-01 0.0000000000000000e+00 4.0696953236357880e-01  7.5839942361291657e-01 0.0000000000000000e+00 4.1951768560468145e-01  7.9090690837064981e-01 0.0000000000000000e+00 4.3592272410580668e-01  8.2480315205939136e-01 0.0000000000000000e+00 4.5175484198278232e-01  8.5552704993125583e-01 0.0000000000000000e+00 4.7118938375486846e-01  8.8640616956555762e-01 0.0000000000000000e+00 4.9394999503170950e-01  9.2088636896736986e-01 0.0000000000000000e+00 5.0760816336906978e-01  9.5141029854665593e-01 0.0000000000000000e+00 5.2846416510225847e-01  9.8237109154925462e-01 0.0000000000000000e+00 5.5331050769559520e-01  1.0211268792965131e+00 0.0000000000000000e+00 5.6241737533464919e-01  1.0560204583294461e+00 0.0000000000000000e+00 5.8796243482406441e-01  1.0865780747694564e+00 0.0000000000000000e+00 6.1562456977804636e-01  1.1196622138905949e+00 0.0000000000000000e+00 6.3838140021586820e-01  1.1511677811855929e+00 0.0000000000000000e+00 6.6535044065604498e-01  1.1841295896079451e+00 0.0000000000000000e+00 6.8717560207890505e-01  1.2139481607502225e+00 0.0000000000000000e+00 7.1519829867140916e-01  1.2469154541444614e+00 0.0000000000000000e+00 7.3581039518261893e-01  1.2783228221485892e+00 0.0000000000000000e+00 7.6643438225654925e-01  1.3106263671508658e+00 0.0000000000000000e+00 7.9058066738523558e-01  1.3454942162087153e+00 0.0000000000000000e+00 8.1611773814081257e-01  1.3747845651669774e+00 0.0000000000000000e+00 8.4253901855774249e-01  1.4080221685764325e+00 0.0000000000000000e+00 8.7135836151062851e-01  1.4369377072293370e+00 0.0000000000000000e+00 9.0829071664919225e-01  1.4720902965705831e+00 0.0000000000000000e+00 9.3507602554686675e-01  1.5049036808464744e+00 0.0000000000000000e+00 9.6720912357869571e-01  1.5369750084553919e+00 0.0000000000000000e+00 9.9544439058803758e-01  1.5669377105834665e+00 0.0000000000000000e+00 1.0291828780831920e+00  1.5998788518294511e+00 0.0000000000000000e+00 1.0628841559663404e+00  1.6298642455943182e+00 0.0000000000000000e+00 1.0997461443227392e+00  1.6621380885469468e+00 0.0000000000000000e+00 1.1380086255583446e+00  1.6947807869503881e+00 0.0000000000000000e+00 1.1709101199097083e+00  1.7244541947649996e+00 0.0000000000000000e+00 1.2120059531477014e+00  1.7571388747934082e+00 0.0000000000000000e+00 1.2483981533061950e+00  1.7888954334114178e+00 0.0000000000000000e+00 1.2846526293068050e+00  1.8167321999170627e+00 0.0000000000000000e+00 1.3215961092619155e+00  1.8508138148844990e+00 0.0000000000000000e+00 1.3621525260456551e+00  1.8825849239348669e+00 0.0000000000000000e+00 1.4046013804172499e+00  1.9139497299315420e+00 0.0000000000000000e+00 1.4448415318589920e+00  1.9419395614397388e+00 0.0000000000000000e+00 1.4898342512629255e+00  1.9737889675368454e+00 0.0000000000000000e+00 1.5345756691396957e+00  2.0062898504450173e+00 0.0000000000000000e+00 1.5755044184930815e+00  2.0370305285152610e+00 0.0000000000000000e+00 1.6182311748126659e+00  2.0698981332964101e+00 0.0000000000000000e+00 1.6645809531153153e+00  2.1010801757707074e+00 0.0000000000000000e+00 1.7076466038110196e+00  2.1298423780635316e+00 0.0000000000000000e+00 1.7535227750267468e+00  2.1619579376208069e+00 0.0000000000000000e+00 1.7983314360218468e+00  2.1946189709428516e+00 0.0000000000000000e+00 1.8465943953882136e+00  2.2229241664196873e+00 0.0000000000000000e+00 1.8950206836708772e+00  2.2539489393252308e+00 0.0000000000000000e+00 1.9475323567574589e+00  2.2850495292115878e+00 0.0000000000000000e+00 1.9947565857169316e+00  2.3157753453394840e+00 0.0000000000000000e+00 2.0459662743409073e+00  2.3427286229070892e+00 0.0000000000000000e+00 2.1029948866252544e+00  2.3735060224804201e+00 0.0000000000000000e+00 2.1550922452299166e+00  2.4048288998982161e+00 0.0000000000000000e+00 2.2053723433373373e+00  2.4367330949925941e+00 0.0000000000000000e+00 2.2597846558789287e+00  2.4650313018534331e+00 0.0000000000000000e+00 2.3147182864826683e+00  2.4961664379029407e+00 0.0000000000000000e+00 2.3677166399064409e+00  2.5232887797970389e+00 0.0000000000000000e+00 2.4274952026466385e+00  2.5534784908764978e+00 0.0000000000000000e+00 2.4847831532187890e+00  2.5847006869101290e+00 0.0000000000000000e+00 2.5420594899206321e+00  2.6116377594565363e+00 0.0000000000000000e+00 2.5995705679523722e+00  2.6412134574383206e+00 0.0000000000000000e+00 2.6610468802045015e+00  2.6731728570183813e+00 0.0000000000000000e+00 2.7176573414218277e+00  2.7012905713446953e+00 0.0000000000000000e+00 2.7747935656168132e+00  2.7306129060065372e+00 0.0000000000000000e+00 2.8359034831822143e+00  2.7609852948073454e+00 0.0000000000000000e+00 2.8925685653874158e+00  2.7889088611637467e+00 0.0000000000000000e+00 2.9551248276768116e+00  2.8191825456996682e+00 0.0000000000000000e+00 3.0170913555070991e+00  2.8481454038881711e+00 0.0000000000000000e+00 3.0794659479189650e+00  2.8743572398237038e+00 0.0000000000000000e+00 3.1432413745093859e+00  2.9025638532000815e+00 0.0000000000000000e+00 3.2059040351385040e+00  2.9305987199097108e+00 0.0000000000000000e+00 3.2652016676219620e+00  2.9590570114398225e+00 0.0000000000000000e+00 3.3195127959736550e+00  2.9844740496851414e+00 0.0000000000000000e+00 3.3705886096785904e+00  3.0024498922568479e+00 0.0000000000000000e+00 3.4231925863579411e+00  3.0165338453070811e+00 0.0000000000000000e+00 3.4781761811991339e+00  3.0272196539812799e+00 0.0000000000000000e+00 3.5378845062314497e+00  3.0331731829499931e+00 0.0000000000000000e+00 3.6006993061020642e+00  3.0733502983809542e+00 1.4763040935018462e-02 3.6726948840575684e+00  3.1282326586372653e+00 4.0547710805325370e-02 3.6866636727567474e+00  3.2041976758687869e+00 7.7050784808100334e-02 3.7077349210852217e+00  3.3082352079185764e+00 1.2854444933049927e-01 3.7230630114181489e+00  3.4413010573148259e+00 1.9629744542537717e-01 3.7366567194868288e+00  3.6089433207155359e+00 2.8038616128773020e-01 3.7225817136362349e+00  3.7352041727075078e+00 3.8540454422983217e-01 3.5963307366558066e+00  3.6993483672326528e+00 3.9901648893899239e-01 3.5145380889116389e+00  3.6639359132173559e+00 4.1226621248825196e-01 3.4314543403217361e+00  3.6282918626978211e+00 4.2318423169065117e-01 3.3487366089595212e+00  3.5899007439132467e+00 4.3290206303558193e-01 3.2685258007565627e+00  3.5497492329065614e+00 4.3944934089564358e-01 3.1903229593580522e+00  3.5087293479881905e+00 4.4410295363042324e-01 3.1140451513738547e+00  3.4673891847957288e+00 4.4552653418558208e-01 3.0395322109489360e+00  3.4276080738140204e+00 4.4660975886833104e-01 2.9647539785607409e+00  3.3870986437081783e+00 4.4637197198216078e-01 2.8935053893387876e+00  3.3482685564655235e+00 4.4759954017450271e-01 2.8221015505352289e+00  3.3097337530201694e+00 4.4727732191352076e-01 2.7535860592183328e+00  3.2716591241145219e+00 4.4718253579558764e-01 2.6872674473510649e+00  3.2338543780293509e+00 4.4736305636798890e-01 2.6222414217261676e+00  3.1974595059498889e+00 4.4661842061680818e-01 2.5580075576828087e+00  3.1612355311558606e+00 4.4597338183376029e-01 2.4942116236293481e+00  3.1243599700119127e+00 4.4494880922266578e-01 2.4320199847830057e+00  3.0879933096696788e+00 4.4322699317620351e-01 2.3723759718022217e+00  3.0514578041349369e+00 4.4410493318745220e-01 2.3118037686720596e+00  3.0149391391711555e+00 4.4269444493482318e-01 2.2514463120240733e+00  2.9787919622204679e+00 4.3971534548940278e-01 2.1915323037151406e+00  2.9420628852368700e+00 4.4030786660622750e-01 2.1306913654745325e+00  2.9058153579458521e+00 4.3816606028625360e-01 2.0728613681506309e+00  2.8690357164639479e+00 4.3973635815956941e-01 2.0157322393060877e+00  2.8328763703082571e+00 4.3885933570795443e-01 1.9595939709665229e+00  2.7962487077311016e+00 4.3515899970185767e-01 1.9066234720369326e+00  2.7596165581123291e+00 4.3614198737006427e-01 1.8539938914973317e+00  2.7235118144314630e+00 4.3814136414618310e-01 1.8004793305798958e+00  2.6873595787642461e+00 4.3568980524933831e-01 1.7507469679364303e+00  2.6518811167759448e+00 4.3777288170885842e-01 1.6992189544698812e+00  2.6153172836083161e+00 4.3678370690816487e-01 1.6500648430980962e+00  2.5788675233190785e+00 4.3410239978106996e-01 1.6022352220472462e+00  2.5420499483380596e+00 4.3534702115853691e-01 1.5546975351060290e+00  2.5057280665270345e+00 4.3672421672473027e-01 1.5078910551395173e+00  2.4691172443201346e+00 4.3651532973912227e-01 1.4620134678197010e+00  2.4329615903766109e+00 4.3843527373559932e-01 1.4156428500445433e+00  2.3966466858735571e+00 4.3901955742069360e-01 1.3697792558413391e+00  2.3594361513198381e+00 4.3848090751677776e-01 1.3254748300487271e+00  2.3222848771848374e+00 4.3707313385185598e-01 1.2826751241411947e+00  2.2853307170439785e+00 4.4012448554670192e-01 1.2399101234530745e+00  2.2482228612040935e+00 4.4093942895271154e-01 1.1970273898393184e+00  2.2107005144079852e+00 4.3885995428923269e-01 1.1565363437466714e+00  2.1719870960999974e+00 4.3970298369388156e-01 1.1147203659221308e+00  2.1350368082940632e+00 4.3897681125846877e-01 1.0711308746017931e+00  2.0982539078272957e+00 4.3677071353292146e-01 1.0307942541673034e+00  2.0611178561801275e+00 4.3800899578160868e-01 9.9179932797852011e-01  2.0235634505300957e+00 4.3934527756106018e-01 9.5313873148092287e-01  1.9860488463867929e+00 4.3756923707954809e-01 9.1725060711541651e-01  1.9483184957175836e+00 4.3762560298031505e-01 8.7939961416039703e-01  1.9108602874137579e+00 4.3627387951815977e-01 8.4189456225178738e-01  1.8726711007142300e+00 4.3551645343515299e-01 8.0777741645938761e-01  1.8351275841657131e+00 4.3627330132048048e-01 7.7316760244091454e-01  1.7978862814631686e+00 4.3656118814005079e-01 7.4094300098536148e-01  1.7602389241341980e+00 4.3796952558521257e-01 7.0551472968518603e-01  1.7227376368331520e+00 4.3437470394524769e-01 6.7341684741662566e-01  1.6844503687695462e+00 4.3428808316892942e-01 6.4193173027667372e-01  1.6463185139120360e+00 4.3629410424537923e-01 6.1098670602863447e-01  1.6089336632341014e+00 4.3609349800756542e-01 5.8077145345842807e-01  1.5706704037958854e+00 4.3562064966213321e-01 5.5304536598365361e-01  1.5323814615311411e+00 4.3670574755087110e-01 5.2440639311759307e-01  1.4943722851025993e+00 4.3465384850452121e-01 4.9854380257980285e-01  1.4562804338837516e+00 4.3593517359592449e-01 4.7266813904303728e-01  1.4178598679474295e+00 4.3745486395324673e-01 4.4843925464175294e-01  1.3804822761423070e+00 4.3717845811654354e-01 4.2390893831696697e-01  1.3424631013239379e+00 4.3797470365652263e-01 4.0088231102751032e-01  1.3038884393454244e+00 4.3932445825049199e-01 3.7849823965713225e-01  1.2652204146712558e+00 4.3914231577768381e-01 3.5722925900820440e-01  1.2279199605782372e+00 4.4112732371696878e-01 3.3431750109984243e-01  1.1895971002373125e+00 4.3958270204198047e-01 3.1368764085994150e-01  1.1512594688665161e+00 4.3987061262383492e-01 2.9135256041637003e-01  1.1129793913399657e+00 4.3822513248718831e-01 2.7066426634306795e-01  1.0750155038038389e+00 4.3947258323349098e-01 2.4944663195078393e-01  1.0373617114478932e+00 4.3812563810427435e-01 2.3019262033592602e-01  9.9829781605567758e-01 4.3826626996153822e-01 2.1125489921313442e-01  9.6002242359505807e-01 4.3703362775567917e-01 1.9274522563308255e-01  9.2076431103849810e-01 4.3874567477695070e-01 1.7536486509981883e-01  8.8248025331445357e-01 4.3916300451973583e-01 1.5979146512920944e-01  8.4434431231824325e-01 4.3890696606654550e-01 1.4486575829789100e-01  8.0629210294810372e-01 4.3953106662135505e-01 1.3068948147815782e-01  7.6806993632150000e-01 4.3908861761900259e-01 1.1659421579625327e-01  7.2939287709236433e-01 4.3752941184552141e-01 1.0310856248956142e-01  6.9129614292809105e-01 4.3741556770063861e-01 9.0939591119556643e-02  6.5311741296929515e-01 4.3896727763750121e-01 7.8777226673083831e-02  6.1490670226916255e-01 4.4064277360412296e-01 6.7181786144704519e-02  5.7679294770114520e-01 4.3929715902460648e-01 5.6613130015233236e-02  5.3831614556517682e-01 4.3974627117682924e-01 4.6249549227286711e-02  4.9888223557460776e-01 4.3867574748386839e-01 3.7440948607443722e-02  4.6045622805066361e-01 4.3790693568004185e-01 2.8928345031737447e-02  4.2204882920490894e-01 4.3763752879974338e-01 2.2565650908998019e-02  3.8351774588358711e-01 4.3846664292306003e-01 1.6444504866953681e-02  3.4603823302498499e-01 4.4108018564337903e-01 1.0613873941771493e-02  3.0774905123611879e-01 4.4170394913946115e-01 6.8423676549392220e-03  2.6969991482292016e-01 4.4152458971178066e-01 3.7621201272806707e-03  2.3090954512653022e-01 4.4422023248838566e-01 2.1256115580551801e-03  1.9211610989460204e-01 4.4711542326016135e-01 -2.9475555948280174e-05  1.5387231609994848e-01 4.4610086953191713e-01 1.3233384505867934e-03  1.1490971535001607e-01 4.4657328745018932e-01 1.7376845278661013e-03  7.5596758668102351e-02 4.4736076028391569e-01 0.0000000000000000e+00  3.6522197344901225e-02 4.4867254906857118e-01 0.0000000000000000e+00  3.7482028497466437e+00 2.8964667074611744e-01 3.6395289998225619e+00  3.7282498587992521e+00 2.2380070759979379e-01 3.6101285769610669e+00  3.7047400699744260e+00 1.5689993069647082e-01 3.5862202552240880e+00  3.7002647314112660e+00 1.0856505748194745e-01 3.5857452033681767e+00  3.6823461268366895e+00 5.0002962394564872e-02 3.5711018221663444e+00  3.6358167312519285e+00 0.0000000000000000e+00 3.4785534204932205e+00  3.6031813472314029e+00 0.0000000000000000e+00 3.4045193487706360e+00  3.5696561934402111e+00 0.0000000000000000e+00 3.3275507339180272e+00  3.5374122928322502e+00 0.0000000000000000e+00 3.2572036570260812e+00  3.5016195826993934e+00 0.0000000000000000e+00 3.1930542567507505e+00  3.4702357381648121e+00 0.0000000000000000e+00 3.1259053661766427e+00  3.4359366559369739e+00 0.0000000000000000e+00 3.0647253763742568e+00  3.4045384617453598e+00 0.0000000000000000e+00 3.0018351259082561e+00  3.3753180799799791e+00 0.0000000000000000e+00 2.9335853800202760e+00  3.3400328755120698e+00 0.0000000000000000e+00 2.8794619501527756e+00  3.3073033504709937e+00 0.0000000000000000e+00 2.8197831702543215e+00  3.2746224742622121e+00 0.0000000000000000e+00 2.7540262390119548e+00  3.2421706396020866e+00 0.0000000000000000e+00 2.6893267481177827e+00  3.2104073268668807e+00 0.0000000000000000e+00 2.6263055145683225e+00  3.1748441273038632e+00 0.0000000000000000e+00 2.5745123894034188e+00  3.1381038865861184e+00 0.0000000000000000e+00 2.5171694593190264e+00  3.1027921925351798e+00 0.0000000000000000e+00 2.4569849215964421e+00  3.0717089514865958e+00 0.0000000000000000e+00 2.3926800543616276e+00  3.0373830058288145e+00 0.0000000000000000e+00 2.3442769784319664e+00  3.0026894615652653e+00 0.0000000000000000e+00 2.2838559526255553e+00  2.9700557093679905e+00 0.0000000000000000e+00 2.2230968528346238e+00  2.9309498094237161e+00 0.0000000000000000e+00 2.1748593420119398e+00  2.8975931218222319e+00 0.0000000000000000e+00 2.1129523389704117e+00  2.8631284948840943e+00 0.0000000000000000e+00 2.0633164476283126e+00  2.8255139134641638e+00 0.0000000000000000e+00 2.0069389401197273e+00  2.7890733123949145e+00 0.0000000000000000e+00 1.9512583722504722e+00  2.7557470528235375e+00 0.0000000000000000e+00 1.8920292292174183e+00  2.7186904526512974e+00 0.0000000000000000e+00 1.8479175572706270e+00  2.6828187839096982e+00 0.0000000000000000e+00 1.7944923219994771e+00  2.6472980122561300e+00 0.0000000000000000e+00 1.7479685509607938e+00  2.6077415888609927e+00 0.0000000000000000e+00 1.7014076437369574e+00  2.5706751003149089e+00 0.0000000000000000e+00 1.6506135498180337e+00  2.5382494262046507e+00 0.0000000000000000e+00 1.5940634376912473e+00  2.5020997636443263e+00 0.0000000000000000e+00 1.5511216709245603e+00  2.4671320494171689e+00 0.0000000000000000e+00 1.4979335976788672e+00  2.4285138155320127e+00 0.0000000000000000e+00 1.4600254366658674e+00  2.3910287989663992e+00 0.0000000000000000e+00 1.4105664033849070e+00  2.3576128784230712e+00 0.0000000000000000e+00 1.3631956472925011e+00  2.3202724537182786e+00 0.0000000000000000e+00 1.3243112564719259e+00  2.2836087921719974e+00 0.0000000000000000e+00 1.2733168224988844e+00  2.2443188732248642e+00 0.0000000000000000e+00 1.2376629151072776e+00  2.2061744181892422e+00 0.0000000000000000e+00 1.1899006359314843e+00  2.1707020793807010e+00 0.0000000000000000e+00 1.1442830113001303e+00  2.1309465462648007e+00 0.0000000000000000e+00 1.1130724110719208e+00  2.0915924517325819e+00 0.0000000000000000e+00 1.0752697015947319e+00  2.0562056709827714e+00 0.0000000000000000e+00 1.0301009298912853e+00  2.0170420673793519e+00 0.0000000000000000e+00 9.9895751267107136e-01  1.9827379375360143e+00 0.0000000000000000e+00 9.5633786449846780e-01  1.9451762724742918e+00 0.0000000000000000e+00 9.2586665386184419e-01  1.9066853683442220e+00 0.0000000000000000e+00 8.8828868371845027e-01  1.8678110297163830e+00 0.0000000000000000e+00 8.5447543323753405e-01  1.8321704786654740e+00 0.0000000000000000e+00 8.1532329255323777e-01  1.7932233952110554e+00 0.0000000000000000e+00 7.8965508069678514e-01  1.7587305924904164e+00 0.0000000000000000e+00 7.4849825489326560e-01  1.7212147641391999e+00 0.0000000000000000e+00 7.2096352455751656e-01 