<?xml version="1.0"?>
<VTKFile type="UnstructuredGrid"  version="0.1"  >
<UnstructuredGrid>
<Piece  NumberOfPoints="3069" NumberOfCells="12882">
<Points>
<DataArray  type="Float64"  NumberOfComponents="3"  format="ascii">0 0 0  0 0 4  0 5.65685415 0  50 0 4  50 5.65685415 0  50 0 0  0 0 1  0 0 2  0 0 3  0 1.04967844 3.90746784  0 2.0669806 3.632725  0 3.02052855 3.18424606  0 3.88091111 2.5758636  0 4.62159061 1.82634306  0 5.21972132 0.958802283  0 4.71404505 0  0 3.77123618 0  0 2.82842708 0  0 1.88561809 0  0 0.942809045 0  0.5 0 4  1 0 4  1.5 0 4  2 0 4  2.5 0 4  3 0 4  3.5 0 4  4 0 4  4.5 0 4  5 0 4  5.5 0 4  6 0 4  6.5 0 4  7 0 4  7.5 0 4  8 0 4  8.5 0 4  9 0 4  9.5 0 4  10 0 4  10.5 0 4  11 0 4  11.5 0 4  12 0 4  12.5 0 4  13 0 4  13.5 0 4  14 0 4  14.5 0 4  15 0 4  15.5 0 4  16 0 4  16.5 0 4  17 0 4  17.5 0 4  18 0 4  18.5 0 4  19 0 4  19.5 0 4  20 0 4  20.5 0 4  21 0 4  21.5 0 4  22 0 4  22.5 0 4  23 0 4  23.5 0 4  24 0 4  24.5 0 4  25 0 4  25.5 0 4  26 0 4  26.5 0 4  27 0 4  27.5 0 4  28 0 4  28.5 0 4  29 0 4  29.5 0 4  30 0 4  30.5 0 4  31 0 4  31.5 0 4  32 0 4  32.5 0 4  33 0 4  33.5 0 4  34 0 4  34.5 0 4  35 0 4  35.5 0 4  36 0 4  36.5 0 4  37 0 4  37.5 0 4  38 0 4  38.5 0 4  39 0 4  39.5 0 4  40 0 4  40.5 0 4  41 0 4  41.5 0 4  42 0 4  42.5 0 4  43 0 4  43.5 0 4  44 0 4  44.5 0 4  45 0 4  45.5 0 4  46 0 4  46.5 0 4  47 0 4  47.5 0 4  48 0 4  48.5 0 4  49 0 4  49.5 0 4  50 1.04967844 3.90746784  50 2.0669806 3.632725  50 3.02052855 3.18424606  50 3.88091111 2.5758636  50 4.62159061 1.82634306  50 5.21972132 0.958802283  49.5 5.65685415 0  49 5.65685415 0  48.5 5.65685415 0  48 5.65685415 0  47.5 5.65685415 0  47 5.65685415 0  46.5 5.65685415 0  46 5.65685415 0  45.5 5.65685415 0  45 5.65685415 0  44.5 5.65685415 0  44 5.65685415 0  43.5 5.65685415 0  43 5.65685415 0  42.5 5.65685415 0  42 5.65685415 0  41.5 5.65685415 0  41 5.65685415 0  40.5 5.65685415 0  40 5.65685415 0  39.5 5.65685415 0  39 5.65685415 0  38.5 5.65685415 0  38 5.65685415 0  37.5 5.65685415 0  37 5.65685415 0  36.5 5.65685415 0  36 5.65685415 0  35.5 5.65685415 0  35 5.65685415 0  34.5 5.65685415 0  34 5.65685415 0  33.5 5.65685415 0  33 5.65685415 0  32.5 5.65685415 0  32 5.65685415 0  31.5 5.65685415 0  31 5.65685415 0  30.5 5.65685415 0  30 5.65685415 0  29.5 5.65685415 0  29 5.65685415 0  28.5 5.65685415 0  28 5.65685415 0  27.5 5.65685415 0  27 5.65685415 0  26.5 5.65685415 0  26 5.65685415 0  25.5 5.65685415 0  25 5.65685415 0  24.5 5.65685415 0  24 5.65685415 0  23.5 5.65685415 0  23 5.65685415 0  22.5 5.65685415 0  22 5.65685415 0  21.5 5.65685415 0  21 5.65685415 0  20.5 5.65685415 0  20 5.65685415 0  19.5 5.65685415 0  19 5.65685415 0  18.5 5.65685415 0  18 5.65685415 0  17.5 5.65685415 0  17 5.65685415 0  16.5 5.65685415 0  16 5.65685415 0  15.5 5.65685415 0  15 5.65685415 0  14.5 5.65685415 0  14 5.65685415 0  13.5 5.65685415 0  13 5.65685415 0  12.5 5.65685415 0  12 5.65685415 0  11.5 5.65685415 0  11 5.65685415 0  10.5 5.65685415 0  10 5.65685415 0  9.5 5.65685415 0  9 5.65685415 0  8.5 5.65685415 0  8 5.65685415 0  7.5 5.65685415 0  7 5.65685415 0  6.5 5.65685415 0  6 5.65685415 0  5.5 5.65685415 0  5 5.65685415 0  4.5 5.65685415 0  4 5.65685415 0  3.5 5.65685415 0  3 5.65685415 0  2.5 5.65685415 0  2 5.65685415 0  1.5 5.65685415 0  1 5.65685415 0  0.5 5.65685415 0  50 4.71404505 0  50 3.77123618 0  50 2.82842708 0  50 1.88561809 0  50 0.942809045 0  49.5 0 0  49 0 0  48.5 0 0  48 0 0  47.5 0 0  47 0 0  46.5 0 0  46 0 0  45.5 0 0  45 0 0  44.5 0 0  44 0 0  43.5 0 0  43 0 0  42.5 0 0  42 0 0  41.5 0 0  41 0 0  40.5 0 0  40 0 0  39.5 0 0  39 0 0  38.5 0 0  38 0 0  37.5 0 0  37 0 0  36.5 0 0  36 0 0  35.5 0 0  35 0 0  34.5 0 0  34 0 0  33.5 0 0  33 0 0  32.5 0 0  32 0 0  31.5 0 0  31 0 0  30.5 0 0  30 0 0  29.5 0 0  29 0 0  28.5 0 0  28 0 0  27.5 0 0  27 0 0  26.5 0 0  26 0 0  25.5 0 0  25 0 0  24.5 0 0  24 0 0  23.5 0 0  23 0 0  22.5 0 0  22 0 0  21.5 0 0  21 0 0  20.5 0 0  20 0 0  19.5 0 0  19 0 0  18.5 0 0  18 0 0  17.5 0 0  17 0 0  16.5 0 0  16 0 0  15.5 0 0  15 0 0  14.5 0 0  14 0 0  13.5 0 0  13 0 0  12.5 0 0  12 0 0  11.5 0 0  11 0 0  10.5 0 0  10 0 0  9.5 0 0  9 0 0  8.5 0 0  8 0 0  7.5 0 0  7 0 0  6.5 0 0  6 0 0  5.5 0 0  5 0 0  4.5 0 0  4 0 0  3.5 0 0  3 0 0  2.5 0 0  2 0 0  1.5 0 0  1 0 0  0.5 0 0  50 0 1  50 0 2  50 0 3  0 2.33524275 0.893602192  0 2.87561393 1.93323028  0 4.2367816 0.876864135  0 2.00050235 2.65534091  0 0.981494486 2.34323239  0 3.78543234 1.61830366  0 3.30545568 0.887000024  0 0.812916458 1.58408713  0 1.71948838 1.71268857  0 1.28267908 0.8650629520000001  0 1.21973121 3.10775328  0.5 5.21972132 0.958802223  0.5 4.62159061 1.82634306  0.5 3.88091111 2.5758636  0.5 3.02052855 3.18424606  0.5 2.0669806 3.632725  0.5 1.04967844 3.90746784  1 5.21972132 0.958802223  1 4.62159061 1.82634306  1 3.88091111 2.5758636  1 3.02052855 3.18424606  1 2.0669806 3.632725  1 1.04967844 3.90746784  1.5 5.21972132 0.958802223  1.5 4.62159061 1.82634306  1.5 3.88091111 2.5758636  1.5 3.02052855 3.18424606  1.5 2.0669806 3.632725  1.5 1.04967844 3.90746784  2 5.21972132 0.958802223  2 4.62159061 1.82634306  2 3.88091111 2.5758636  2 3.02052855 3.18424606  2 2.0669806 3.632725  2 1.04967844 3.90746784  2.5 5.21972132 0.958802223  2.5 4.62159061 1.82634306  2.5 3.88091111 2.5758636  2.5 3.02052855 3.18424606  2.5 2.0669806 3.632725  2.5 1.04967844 3.90746784  3 5.21972132 0.958802223  3 4.62159061 1.82634306  3 3.88091111 2.5758636  3 3.02052855 3.18424606  3 2.0669806 3.632725  3 1.04967844 3.90746784  3.5 5.21972132 0.958802223  3.5 4.62159061 1.82634306  3.5 3.88091111 2.5758636  3.5 3.02052855 3.18424606  3.5 2.0669806 3.632725  3.5 1.04967844 3.90746784  4 5.21972132 0.958802223  4 4.62159061 1.82634306  4 3.88091111 2.5758636  4 3.02052855 3.18424606  4 2.0669806 3.632725  4 1.04967844 3.90746784  4.5 5.21972132 0.958802223  4.5 4.62159061 1.82634306  4.5 3.88091111 2.5758636  4.5 3.02052855 3.18424606  4.5 2.0669806 3.632725  4.5 1.04967844 3.90746784  5 5.21972132 0.958802223  5 4.62159061 1.82634306  5 3.88091111 2.5758636  5 3.02052855 3.18424606  5 2.0669806 3.632725  5 1.04967844 3.90746784  5.5 5.21972132 0.958802223  5.5 4.62159061 1.82634306  5.5 3.88091111 2.5758636  5.5 3.02052855 3.18424606  5.5 2.0669806 3.632725  5.5 1.04967844 3.90746784  6 5.21972132 0.958802223  6 4.62159061 1.82634306  6 3.88091111 2.5758636  6 3.02052855 3.18424606  6 2.0669806 3.632725  6 1.04967844 3.90746784  6.5 5.21972132 0.958802223  6.5 4.62159061 1.82634306  6.5 3.88091111 2.5758636  6.5 3.02052855 3.18424606  6.5 2.0669806 3.632725  6.5 1.04967844 3.90746784  7 5.21972132 0.958802223  7 4.62159061 1.82634306  7 3.88091111 2.5758636  7 3.02052855 3.18424606  7 2.0669806 3.632725  7 1.04967844 3.90746784  7.5 5.21972132 0.958802223  7.5 4.62159061 1.82634306  7.5 3.88091111 2.5758636  7.5 3.02052855 3.18424606  7.5 2.0669806 3.632725  7.5 1.04967844 3.90746784  8 5.21972132 0.958802223  8 4.62159061 1.82634306  8 3.88091111 2.5758636  8 3.02052855 3.18424606  8 2.0669806 3.632725  8 1.04967844 3.90746784  8.5 5.21972132 0.958802223  8.5 4.62159061 1.82634306  8.5 3.88091111 2.5758636  8.5 3.02052855 3.18424606  8.5 2.0669806 3.632725  8.5 1.04967844 3.90746784  9 5.21972132 0.958802223  9 4.62159061 1.82634306  9 3.88091111 2.5758636  9 3.02052855 3.18424606  9 2.0669806 3.632725  9 1.04967844 3.90746784  9.5 5.21972132 0.958802223  9.5 4.62159061 1.82634306  9.5 3.88091111 2.5758636  9.5 3.02052855 3.18424606  9.5 2.0669806 3.632725  9.5 1.04967844 3.90746784  10 5.21972132 0.958802223  10 4.62159061 1.82634306  10 3.88091111 2.5758636  10 3.02052855 3.18424606  10 2.0669806 3.632725  10 1.04967844 3.90746784  10.5 5.21972132 0.958802223  10.5 4.62159061 1.82634306  10.5 3.88091111 2.5758636  10.5 3.02052855 3.18424606  10.5 2.0669806 3.632725  10.5 1.04967844 3.90746784  11 5.21972132 0.958802223  11 4.62159061 1.82634306  11 3.88091111 2.5758636  11 3.02052855 3.18424606  11 2.0669806 3.632725  11 1.04967844 3.90746784  11.5 5.21972132 0.958802223  11.5 4.62159061 1.82634306  11.5 3.88091111 2.5758636  11.5 3.02052855 3.18424606  11.5 2.0669806 3.632725  11.5 1.04967844 3.90746784  12 5.21972132 0.958802223  12 4.62159061 1.82634306  12 3.88091111 2.5758636  12 3.02052855 3.18424606  12 2.0669806 3.632725  12 1.04967844 3.90746784  12.5 5.21972132 0.958802223  12.5 4.62159061 1.82634306  12.5 3.88091111 2.5758636  12.5 3.02052855 3.18424606  12.5 2.0669806 3.632725  12.5 1.04967844 3.90746784  13 5.21972132 0.958802223  13 4.62159061 1.82634306  13 3.88091111 2.5758636  13 3.02052855 3.18424606  13 2.0669806 3.632725  13 1.04967844 3.90746784  13.5 5.21972132 0.958802223  13.5 4.62159061 1.82634306  13.5 3.88091111 2.5758636  13.5 3.02052855 3.18424606  13.5 2.0669806 3.632725  13.5 1.04967844 3.90746784  14 5.21972132 0.958802223  14 4.62159061 1.82634306  14 3.88091111 2.5758636  14 3.02052855 3.18424606  14 2.0669806 3.632725  14 1.04967844 3.90746784  14.5 5.21972132 0.958802223  14.5 4.62159061 1.82634306  14.5 3.88091111 2.5758636  14.5 3.02052855 3.18424606  14.5 2.0669806 3.632725  14.5 1.04967844 3.90746784  15 5.21972132 0.958802223  15 4.62159061 1.82634306  15 3.88091111 2.5758636  15 3.02052855 3.18424606  15 2.0669806 3.632725  15 1.04967844 3.90746784  15.5 5.21972132 0.958802223  15.5 4.62159061 1.82634306  15.5 3.88091111 2.5758636  15.5 3.02052855 3.18424606  15.5 2.0669806 3.632725  15.5 1.04967844 3.90746784  16 5.21972132 0.958802223  16 4.62159061 1.82634306  16 3.88091111 2.5758636  16 3.02052855 3.18424606  16 2.0669806 3.632725  16 1.04967844 3.90746784  16.5 5.21972132 0.958802223  16.5 4.62159061 1.82634306  16.5 3.88091111 2.5758636  16.5 3.02052855 3.18424606  16.5 2.0669806 3.632725  16.5 1.04967844 3.90746784  17 5.21972132 0.958802223  17 4.62159061 1.82634306  17 3.88091111 2.5758636  17 3.02052855 3.18424606  17 2.0669806 3.632725  17 1.04967844 3.90746784  17.5 5.21972132 0.958802223  17.5 4.62159061 1.82634306  17.5 3.88091111 2.5758636  17.5 3.02052855 3.18424606  17.
[...]
<PointData  Vectors="f_261141-0"> 
<DataArray  type="Float64"  Name="f_261141-0"  NumberOfComponents="3" format="ascii">0.0000000000000000e+00 0.0000000000000000e+00 0.0000000000000000e+00  0.0000000000000000e+00 0.0000000000000000e+00 8.5526115916811196e-01  0.0000000000000000e+00 1.0871855536551194e+00 0.0000000000000000e+00  1.0494416235755915e+01 0.0000000000000000e+00 -2.1815053348022126e+00  9.9897952649883646e+00 1.0973553411423753e+00 -3.0116730518571386e+00  9.9969384616808785e+00 0.0000000000000000e+00 -2.9354597723337799e+00  0.0000000000000000e+00 0.0000000000000000e+00 1.5575615362090151e-01  0.0000000000000000e+00 0.0000000000000000e+00 4.1232385769985425e-01  0.0000000000000000e+00 0.0000000000000000e+00 7.0136971991988772e-01  0.0000000000000000e+00 2.5870183939680097e-01 8.1368522694069556e-01  0.0000000000000000e+00 4.4682009574815706e-01 7.2053490762666428e-01  0.0000000000000000e+00 6.4486283504163855e-01 6.3852959423344879e-01  0.0000000000000000e+00 8.2390045481845886e-01 5.1257973006617064e-01  0.0000000000000000e+00 9.6172457635857611e-01 3.2605476158304125e-01  0.0000000000000000e+00 1.0515554017398658e+00 1.6841070967681065e-01  0.0000000000000000e+00 9.3652446061343708e-01 0.0000000000000000e+00  0.0000000000000000e+00 7.7349021892073422e-01 0.0000000000000000e+00  0.0000000000000000e+00 5.9298608958149601e-01 0.0000000000000000e+00  0.0000000000000000e+00 4.0004699612737077e-01 0.0000000000000000e+00  0.0000000000000000e+00 2.0312668602880102e-01 0.0000000000000000e+00  1.0374083449288964e-01 0.0000000000000000e+00 8.5917412169927199e-01  2.0956470237936936e-01 0.0000000000000000e+00 8.5802578356111425e-01  3.1651864570266558e-01 0.0000000000000000e+00 8.5516235173894195e-01  4.2485889253162679e-01 0.0000000000000000e+00 8.5369960555701319e-01  5.2334441148862032e-01 0.0000000000000000e+00 8.6518679460233849e-01  6.3760145918075450e-01 0.0000000000000000e+00 8.5405906269248233e-01  7.3978446300168910e-01 0.0000000000000000e+00 8.5034253135551341e-01  8.5086761154656299e-01 0.0000000000000000e+00 8.3727520930964161e-01  9.5908202948123300e-01 0.0000000000000000e+00 8.2507255997503370e-01  1.0630486274726962e+00 0.0000000000000000e+00 8.1753841595714949e-01  1.1670847271885145e+00 0.0000000000000000e+00 8.1129328372450638e-01  1.2715441474851852e+00 0.0000000000000000e+00 8.1962980957373155e-01  1.3776528939544579e+00 0.0000000000000000e+00 8.1769342960691060e-01  1.4951917340973357e+00 0.0000000000000000e+00 7.9203588570663253e-01  1.6003225300076001e+00 0.0000000000000000e+00 7.8186760398854038e-01  1.7130217923802253e+00 0.0000000000000000e+00 7.7134562697524611e-01  1.8195734612335144e+00 0.0000000000000000e+00 7.6442588785243581e-01  1.9272097049585699e+00 0.0000000000000000e+00 7.4853710455193623e-01  2.0312395264613077e+00 0.0000000000000000e+00 7.4369401524399770e-01  2.1338824218495800e+00 0.0000000000000000e+00 7.4067118441329172e-01  2.2379682664124902e+00 0.0000000000000000e+00 7.4235291789034208e-01  2.3437627344833261e+00 0.0000000000000000e+00 7.1901391819215366e-01  2.4511391128945350e+00 0.0000000000000000e+00 7.1084291833703006e-01  2.5594548093896692e+00 0.0000000000000000e+00 6.9474592638573174e-01  2.6636525950741849e+00 0.0000000000000000e+00 6.8947644649067930e-01  2.7734565397384086e+00 0.0000000000000000e+00 6.6730732227799083e-01  2.8810481361221503e+00 0.0000000000000000e+00 6.4756794610832125e-01  2.9833693345372185e+00 0.0000000000000000e+00 6.4020248671598667e-01  3.0905552869387396e+00 0.0000000000000000e+00 6.2410060664460287e-01  3.1971143278173826e+00 0.0000000000000000e+00 5.9459311658488778e-01  3.2927265319938863e+00 0.0000000000000000e+00 5.9954584852012960e-01  3.3961454352917788e+00 0.0000000000000000e+00 5.7418073730549668e-01  3.5029010296557725e+00 0.0000000000000000e+00 5.4687356160421718e-01  3.6122709481598601e+00 0.0000000000000000e+00 5.1681721831117344e-01  3.7231528373368512e+00 0.0000000000000000e+00 4.9333276122252312e-01  3.8315721245866325e+00 0.0000000000000000e+00 4.7745072528726445e-01  3.9406995372398734e+00 0.0000000000000000e+00 4.5801719222785708e-01  4.0454811542381064e+00 0.0000000000000000e+00 4.4420394476144376e-01  4.1554574534165116e+00 0.0000000000000000e+00 4.1577270700984170e-01  4.2597559937665936e+00 0.0000000000000000e+00 4.0117563068919337e-01  4.3600457643365491e+00 0.0000000000000000e+00 3.8455178423283831e-01  4.4685906613072186e+00 0.0000000000000000e+00 3.6024642543054824e-01  4.5708523110542805e+00 0.0000000000000000e+00 3.3530694671912270e-01  4.6834795893535892e+00 0.0000000000000000e+00 2.8816427496015651e-01  4.7831444243881664e+00 0.0000000000000000e+00 2.6876687917418002e-01  4.8862383004076539e+00 0.0000000000000000e+00 2.4249931472699318e-01  4.9918793547784608e+00 0.0000000000000000e+00 2.2907641616858712e-01  5.1004750060674846e+00 0.0000000000000000e+00 2.0561541130010541e-01  5.2066377357775941e+00 0.0000000000000000e+00 1.8034133861894375e-01  5.3140407653206934e+00 0.0000000000000000e+00 1.5187847467113896e-01  5.4218214453814380e+00 0.0000000000000000e+00 1.1524977166394701e-01  5.5244287656750073e+00 0.0000000000000000e+00 1.0023562333848332e-01  5.6346001313287539e+00 0.0000000000000000e+00 6.0097270152919054e-02  5.7369424208315154e+00 0.0000000000000000e+00 3.9993389560665372e-02  5.8448320471527069e+00 0.0000000000000000e+00 2.6412137521131377e-03  5.9575038622003227e+00 0.0000000000000000e+00 -3.0527533347012720e-02  6.0620152161055971e+00 0.0000000000000000e+00 -6.6875152898163870e-02  6.1645973016880626e+00 0.0000000000000000e+00 -9.4551714023866335e-02  6.2721981765444363e+00 0.0000000000000000e+00 -1.2444558709578123e-01  6.3810697590306020e+00 0.0000000000000000e+00 -1.7024334288079618e-01  6.4848880192019047e+00 0.0000000000000000e+00 -2.1864686014141316e-01  6.5867899736257289e+00 0.0000000000000000e+00 -2.4138801115854286e-01  6.6930970647906127e+00 0.0000000000000000e+00 -2.8268952341867315e-01  6.7994287556875204e+00 0.0000000000000000e+00 -3.2349519400710464e-01  6.9006098393520015e+00 0.0000000000000000e+00 -3.4400086836895055e-01  7.0113596146770512e+00 0.0000000000000000e+00 -3.7670407205412271e-01  7.1228156948199883e+00 0.0000000000000000e+00 -4.1770251226698257e-01  7.2247163782735182e+00 0.0000000000000000e+00 -4.5635433612034937e-01  7.3303947110845611e+00 0.0000000000000000e+00 -4.9752489917470888e-01  7.4318447761988633e+00 0.0000000000000000e+00 -5.4050539785448559e-01  7.5362119386141471e+00 0.0000000000000000e+00 -5.7867800511677081e-01  7.6403440067173278e+00 0.0000000000000000e+00 -6.2032201920181640e-01  7.7494724561805732e+00 0.0000000000000000e+00 -6.8055658522154516e-01  7.8554991268849417e+00 0.0000000000000000e+00 -7.2477200733651403e-01  7.9651502902767550e+00 0.0000000000000000e+00 -7.6772493343199943e-01  8.0685642291585964e+00 0.0000000000000000e+00 -8.1153725600621529e-01  8.1761233806091500e+00 0.0000000000000000e+00 -8.5733090127459588e-01  8.2780569952977903e+00 0.0000000000000000e+00 -9.0352599482626561e-01  8.3866500621726754e+00 0.0000000000000000e+00 -9.6361930321232003e-01  8.4889422304228876e+00 0.0000000000000000e+00 -1.0104048131485364e+00  8.5925647344213285e+00 0.0000000000000000e+00 -1.0549707103553327e+00  8.7060926764287494e+00 0.0000000000000000e+00 -1.1087423385883983e+00  8.8146644520850153e+00 0.0000000000000000e+00 -1.1622721392524178e+00  8.9170694761762519e+00 0.0000000000000000e+00 -1.2050123505641663e+00  9.0267686440424466e+00 0.0000000000000000e+00 -1.2659934803094455e+00  9.1291296963569675e+00 0.0000000000000000e+00 -1.3139904655259704e+00  9.2372538660798416e+00 0.0000000000000000e+00 -1.3683271334223932e+00  9.3434381898790537e+00 0.0000000000000000e+00 -1.4329380720332492e+00  9.4493946518569683e+00 0.0000000000000000e+00 -1.5068175354522686e+00  9.5505545985413693e+00 0.0000000000000000e+00 -1.5679351112152109e+00  9.6553879736173247e+00 0.0000000000000000e+00 -1.6393532341383197e+00  9.7564451309683733e+00 0.0000000000000000e+00 -1.7054194456521312e+00  9.8545151684989030e+00 0.0000000000000000e+00 -1.7677987400751172e+00  9.9481134804125215e+00 0.0000000000000000e+00 -1.8313535167034225e+00  1.0039627992685286e+01 0.0000000000000000e+00 -1.8965578715080242e+00  1.0132092233969630e+01 0.0000000000000000e+00 -1.9549142946236371e+00  1.0224663134271713e+01 0.0000000000000000e+00 -2.0071367377013445e+00  1.0317086304619682e+01 0.0000000000000000e+00 -2.0675025864185899e+00  1.0408125061913225e+01 0.0000000000000000e+00 -2.1296436665763752e+00  1.0478181777038166e+01 2.0266339298338468e-01 -2.1959188788949349e+00  1.0463690955381015e+01 3.9834416089716157e-01 -2.2448657991951042e+00  1.0423573356200491e+01 6.0291132553716520e-01 -2.3240408377782553e+00  1.0366154761324101e+01 8.0274613528725269e-01 -2.4351615834920071e+00  1.0284816841458470e+01 9.7817680284579933e-01 -2.6252539964783117e+00  1.0132121235910880e+01 1.0608974295917990e+00 -2.8315393860552311e+00  9.9033232840865182e+00 1.0936485858879765e+00 -2.9434618782283630e+00  9.8141916074383300e+00 1.0908800268917171e+00 -2.8732727123824469e+00  9.7252401518341394e+00 1.0898915299359007e+00 -2.8032111515656335e+00  9.6329579861776402e+00 1.0856450362698615e+00 -2.7278231177591716e+00  9.5438823641194155e+00 1.0842428679418148e+00 -2.6632360332534586e+00  9.4542245539914767e+00 1.0891275591748737e+00 -2.6052876867971664e+00  9.3634379779774068e+00 1.0849733027296742e+00 -2.5453853438225109e+00  9.2689171574487972e+00 1.0871619442259888e+00 -2.4826760029288573e+00  9.1747341421099531e+00 1.0911497824113696e+00 -2.4213185052437947e+00  9.0789583624368930e+00 1.0927152897469292e+00 -2.3589978010888504e+00  8.9821203177997351e+00 1.0957313060700824e+00 -2.2989056490789466e+00  8.8851409041665708e+00 1.1055704992869648e+00 -2.2437340678332687e+00  8.7884744195109921e+00 1.1070075557922721e+00 -2.1822027126442469e+00  8.6905233280745513e+00 1.1051919947058990e+00 -2.1262252889964146e+00  8.5929783462083833e+00 1.1100994276659650e+00 -2.0844234770999659e+00  8.4878732720730738e+00 1.1034211419145517e+00 -2.0315505290580487e+00  8.3941868656665406e+00 1.1065241999321234e+00 -1.9710354413002977e+00  8.2970400120802204e+00 1.1166032740144578e+00 -1.9142620089690008e+00  8.2015546038398028e+00 1.1211011559794444e+00 -1.8628289952984800e+00  8.1042885160599063e+00 1.1252283871272113e+00 -1.8076805215664988e+00  8.0062701815895068e+00 1.1299614323903426e+00 -1.7516959103027383e+00  7.9067405808240059e+00 1.1273884049673222e+00 -1.6934015886396614e+00  7.8061081132609047e+00 1.1335485853027707e+00 -1.6466506291212251e+00  7.7065288281271513e+00 1.1213181111021111e+00 -1.5995589604323344e+00  7.6082047102133981e+00 1.1231189135152746e+00 -1.5608121980192848e+00  7.5089647703626881e+00 1.1227205888058074e+00 -1.5191407591303510e+00  7.4074970889085678e+00 1.1225915390000734e+00 -1.4779266098613733e+00  7.3066814254977785e+00 1.1216052654737887e+00 -1.4399065382975820e+00  7.2065542647803449e+00 1.1231558565175861e+00 -1.4018175331566505e+00  7.1065255635508935e+00 1.1196601791560397e+00 -1.3588288644291893e+00  7.0050699142537276e+00 1.1192740734299489e+00 -1.3194481937549623e+00  6.9041429415883604e+00 1.1236621440866408e+00 -1.2832633352472549e+00  6.8028474782403672e+00 1.1177497730678105e+00 -1.2465893375114512e+00  6.7008359224250560e+00 1.1122842500385670e+00 -1.2114622585817978e+00  6.6000666781981776e+00 1.1102813502724902e+00 -1.1753958936163196e+00  6.4993451325588945e+00 1.1076562033958099e+00 -1.1398862432749279e+00  6.3985678657654352e+00 1.1079190525467817e+00 -1.1047871515905858e+00  6.2961331764617867e+00 1.1120516634970914e+00 -1.0688772993683735e+00  6.1941644074161051e+00 1.1163086041411894e+00 -1.0383880106051546e+00  6.0935000766866532e+00 1.1067933270127348e+00 -1.0058230008876032e+00  5.9916538058693796e+00 1.1035704513196396e+00 -9.7436865650662008e-01  5.8911156997346836e+00 1.1074864764113104e+00 -9.4468276456171663e-01  5.7921280032251454e+00 1.0989885653512508e+00 -9.0710713291157385e-01  5.6915339867980110e+00 1.1013000951737688e+00 -8.7236703698870366e-01  5.5918414193283734e+00 1.1073650706138081e+00 -8.4197587642123206e-01  5.4924913603424139e+00 1.1055644206104773e+00 -8.0595419652190381e-01  5.3947863456919380e+00 1.1072164421491271e+00 -7.7368299770130011e-01  5.2943351578861897e+00 1.1118673013111273e+00 -7.4392205789470922e-01  5.1928886522177322e+00 1.1078338539273229e+00 -7.0726002296546375e-01  5.0897029520928498e+00 1.1133821029608861e+00 -6.7222700554734016e-01  4.9877967488489903e+00 1.1151540723057958e+00 -6.4620357191758337e-01  4.8844991246078919e+00 1.1203939869907171e+00 -6.2526836936203500e-01  4.7819237241094203e+00 1.1140472168567401e+00 -5.9849131300759151e-01  4.6792159721036093e+00 1.1165677494437640e+00 -5.7672645649495335e-01  4.5797707309280851e+00 1.1162450185526951e+00 -5.5406875130793953e-01  4.4770777547322691e+00 1.1160332927424081e+00 -5.2519769883706746e-01  4.3747974745474236e+00 1.1120846105238171e+00 -4.9254759705311352e-01  4.2734689119860310e+00 1.1197240854078152e+00 -4.6991037766917332e-01  4.1732006214730735e+00 1.1192325362689055e+00 -4.4774901610374085e-01  4.0737843331490975e+00 1.1198981832627115e+00 -4.2847192534971712e-01  3.9702337248155533e+00 1.1253416499096249e+00 -4.1115885478802555e-01  3.8683065404111949e+00 1.1170196328095943e+00 -3.9148415364316191e-01  3.7639361167409371e+00 1.1151508612592975e+00 -3.7036754141114092e-01  3.6625580683799206e+00 1.1188953184047576e+00 -3.5736588483347481e-01  3.5603920150386918e+00 1.1124482637117170e+00 -3.3568743138345059e-01  3.4576770881765055e+00 1.0993977010641840e+00 -3.1091405791279664e-01  3.3569974616907712e+00 1.1021519120457479e+00 -3.0177442266842402e-01  3.2552844539992987e+00 1.0997055118511279e+00 -2.8865374375659097e-01  3.1552274273519725e+00 1.0992720997226963e+00 -2.7279682844425240e-01  3.0553644547850753e+00 1.1003201111010437e+00 -2.5503933131626910e-01  2.9530928284726286e+00 1.1018666149151497e+00 -2.3374033402598665e-01  2.8502832935230460e+00 1.1043565043532633e+00 -2.1479779013579298e-01  2.7488571626129437e+00 1.1097347026426556e+00 -2.0128051121014839e-01  2.6467804676567228e+00 1.1089405680543709e+00 -1.8345155813013156e-01  2.5445268219787596e+00 1.1101553995694269e+00 -1.6731059844297536e-01  2.4430608809190715e+00 1.1051569427589287e+00 -1.4947341062429534e-01  2.3421926943340714e+00 1.1074519367451769e+00 -1.3732015505018355e-01  2.2426990836058818e+00 1.1121072102894261e+00 -1.2549443704752836e-01  2.1389875090400907e+00 1.1133806895809404e+00 -1.1288589036241686e-01  2.0354003111073089e+00 1.1069967993168186e+00 -9.2796119890673961e-02  1.9342715420728154e+00 1.1157468895977944e+00 -8.3647452287788679e-02  1.8309402704062103e+00 1.1181700115222617e+00 -7.1296443599377368e-02  1.7295282261654947e+00 1.1071595441472981e+00 -5.4737149403363758e-02  1.6277235186939176e+00 1.1093881388710447e+00 -4.8144539306485837e-02  1.5280465724197241e+00 1.1098039924011689e+00 -4.3111449812134210e-02  1.4276017891999331e+00 1.1109748201425655e+00 -3.3369356454178718e-02  1.3258591996003164e+00 1.1083876094473362e+00 -1.8477602209599622e-02  1.2236002617188784e+00 1.1166230308363265e+00 -1.4916040315839138e-02  1.1211897966688404e+00 1.1181578423435783e+00 -1.0539242379086050e-02  1.0186766016162510e+00 1.1186076297642900e+00 -3.8122910342190982e-03  9.1582164402302857e-01 1.1152005582289393e+00 -1.5186640779681392e-03  8.1407527386798340e-01 1.1133492177801227e+00 1.4961771941619342e-03  7.1083321383893905e-01 1.1152751132937724e+00 2.8105528466861045e-03  6.0618420194713618e-01 1.1114231179585816e+00 1.1254799690493677e-02  5.0513447916555076e-01 1.1073363636383216e+00 1.2860550011088656e-02  4.0324156280193874e-01 1.1099065773164367e+00 6.0332135988253243e-03  3.0017398892038188e-01 1.0981601177306837e+00 4.4441907343286575e-03  1.9899151190163786e-01 1.0923705386378761e+00 0.0000000000000000e+00  9.8223802011730962e-02 1.0848904583978396e+00 0.0000000000000000e+00  9.9971128721584197e+00 9.2317957539519147e-01 -2.9844579630837953e+00  9.9994439543994016e+00 7.3596383387229292e-01 -2.9686425782237662e+00  1.0004052675350025e+01 5.6044880083145798e-01 -2.9587701028538302e+00  1.0003711760129189e+01 3.6707960031509607e-01 -2.9463469292940392e+00  9.9977554460701210e+00 1.7257263764872943e-01 -2.9470205566332695e+00  9.9163189873147992e+00 0.0000000000000000e+00 -2.8800492979174996e+00  9.8350158334660609e+00 0.0000000000000000e+00 -2.8236507138334734e+00  9.7486384316104608e+00 0.0000000000000000e+00 -2.7668778061042754e+00  9.6588982395863194e+00 0.0000000000000000e+00 -2.7136879617197138e+00  9.5673332983659272e+00 0.0000000000000000e+00 -2.6570910890909438e+00  9.4696038460848246e+00 0.0000000000000000e+00 -2.6009036880617646e+00  9.3754725766460094e+00 0.0000000000000000e+00 -2.5510875591952997e+00  9.2726878868785221e+00 0.0000000000000000e+00 -2.4943418920772293e+00  9.1720516656281035e+00 0.0000000000000000e+00 -2.4316559751049733e+00  9.0731725631946070e+00 0.0000000000000000e+00 -2.3916471528544108e+00  8.9732626005008722e+00 0.0000000000000000e+00 -2.3336702105777030e+00  8.8786212821694832e+00 0.0000000000000000e+00 -2.2779154620241604e+00  8.7831802670801906e+00 0.0000000000000000e+00 -2.2117056801318040e+00  8.6802888245009324e+00 0.0000000000000000e+00 -2.1473964674963111e+00  8.5870639843785188e+00 0.0000000000000000e+00 -2.1103627661777500e+00  8.4916262783482424e+00 0.0000000000000000e+00 -2.0658356266014812e+00  8.3953921335965216e+00 0.0000000000000000e+00 -2.0063737903851755e+00  8.2958485276363110e+00 0.0000000000000000e+00 -1.9501720734717731e+00  8.1946560010253364e+00 0.0000000000000000e+00 -1.9205704987007279e+00  8.0969579201489648e+00 0.0000000000000000e+00 -1.8667581522582009e+00  7.9968501099375278e+00 0.0000000000000000e+00 -1.8141343901886953e+00  7.9006983442013441e+00 0.0000000000000000e+00 -1.7654102396416156e+00  7.8022977492365468e+00 0.0000000000000000e+00 -1.7115715644181380e+00  7.7012638065699122e+00 0.0000000000000000e+00 -1.6749189009185355e+00  7.6045207380557702e+00 0.0000000000000000e+00 -1.6254447275327315e+00  7.5042826935254840e+00 0.0000000000000000e+00 -1.5712477845399060e+00  7.4007691334568833e+00 0.0000000000000000e+00 -1.5260912608708110e+00  7.2989367635207332e+00 0.0000000000000000e+00 -1.4929190312466676e+00  7.1991200617174576e+00 0.0000000000000000e+00 -1.4540072148397993e+00  7.0977062597802805e+00 0.0000000000000000e+00 -1.4154931674385023e+00  7.0031848439535134e+00 0.0000000000000000e+00 -1.3810784368354068e+00  6.9052984683319227e+00 0.0000000000000000e+00 -1.3404708087794615e+00  6.8050239364504312e+00 0.0000000000000000e+00 -1.2825859148439736e+00  6.7015991787351172e+00 0.0000000000000000e+00 -1.2511162294237430e+00  6.5967400798537144e+00 0.0000000000000000e+00 -1.2080874126720935e+00  6.4976556903050460e+00 0.0000000000000000e+00 -1.1818405071042863e+00  6.3962782938404601e+00 0.0000000000000000e+00 -1.1423957451577513e+00  6.2900511661792544e+00 0.0000000000000000e+00 -1.0983834144461972e+00  6.1888553640333726e+00 0.0000000000000000e+00 -1.0632252912821760e+00  6.0925206453014189e+00 0.0000000000000000e+00 -1.0169534545281944e+00  5.9963003944549991e+00 0.0000000000000000e+00 -9.9235890221605638e-01  5.9001974200989595e+00 0.0000000000000000e+00 -9.5104872500352722e-01  5.7973022441535225e+00 0.0000000000000000e+00 -9.1318227222319381e-01  5.7036677861227050e+00 0.0000000000000000e+00 -8.9986719664696302e-01  5.6046440654093095e+00 0.0000000000000000e+00 -8.7122070905970894e-01  5.5012312375023527e+00 0.0000000000000000e+00 -8.2536954461466172e-01  5.3987781684960208e+00 0.0000000000000000e+00 -8.0241960439431448e-01  5.2977460837396748e+00 0.0000000000000000e+00 -7.7044499073862394e-01  5.1884177785528918e+00 0.0000000000000000e+00 -7.4464867834594672e-01  5.0892936073042465e+00 0.0000000000000000e+00 -7.1869227098933663e-01  4.9883784924275369e+00 0.0000000000000000e+00 -7.0631440302114390e-01  4.8853232606809964e+00 0.0000000000000000e+00 -6.6784944263331991e-01  4.7855575