<?xml version="1.0"?>
<VTKFile type="UnstructuredGrid"  version="0.1"  >
<UnstructuredGrid>
<Piece  NumberOfPoints="3069" NumberOfCells="12882">
<Points>
<DataArray  type="Float64"  NumberOfComponents="3"  format="ascii">0 0 0  0 0 4  0 5.65685415 0  50 0 4  50 5.65685415 0  50 0 0  0 0 1  0 0 2  0 0 3  0 1.04967844 3.90746784  0 2.0669806 3.632725  0 3.02052855 3.18424606  0 3.88091111 2.5758636  0 4.62159061 1.82634306  0 5.21972132 0.958802283  0 4.71404505 0  0 3.77123618 0  0 2.82842708 0  0 1.88561809 0  0 0.942809045 0  0.5 0 4  1 0 4  1.5 0 4  2 0 4  2.5 0 4  3 0 4  3.5 0 4  4 0 4  4.5 0 4  5 0 4  5.5 0 4  6 0 4  6.5 0 4  7 0 4  7.5 0 4  8 0 4  8.5 0 4  9 0 4  9.5 0 4  10 0 4  10.5 0 4  11 0 4  11.5 0 4  12 0 4  12.5 0 4  13 0 4  13.5 0 4  14 0 4  14.5 0 4  15 0 4  15.5 0 4  16 0 4  16.5 0 4  17 0 4  17.5 0 4  18 0 4  18.5 0 4  19 0 4  19.5 0 4  20 0 4  20.5 0 4  21 0 4  21.5 0 4  22 0 4  22.5 0 4  23 0 4  23.5 0 4  24 0 4  24.5 0 4  25 0 4  25.5 0 4  26 0 4  26.5 0 4  27 0 4  27.5 0 4  28 0 4  28.5 0 4  29 0 4  29.5 0 4  30 0 4  30.5 0 4  31 0 4  31.5 0 4  32 0 4  32.5 0 4  33 0 4  33.5 0 4  34 0 4  34.5 0 4  35 0 4  35.5 0 4  36 0 4  36.5 0 4  37 0 4  37.5 0 4  38 0 4  38.5 0 4  39 0 4  39.5 0 4  40 0 4  40.5 0 4  41 0 4  41.5 0 4  42 0 4  42.5 0 4  43 0 4  43.5 0 4  44 0 4  44.5 0 4  45 0 4  45.5 0 4  46 0 4  46.5 0 4  47 0 4  47.5 0 4  48 0 4  48.5 0 4  49 0 4  49.5 0 4  50 1.04967844 3.90746784  50 2.0669806 3.632725  50 3.02052855 3.18424606  50 3.88091111 2.5758636  50 4.62159061 1.82634306  50 5.21972132 0.958802283  49.5 5.65685415 0  49 5.65685415 0  48.5 5.65685415 0  48 5.65685415 0  47.5 5.65685415 0  47 5.65685415 0  46.5 5.65685415 0  46 5.65685415 0  45.5 5.65685415 0  45 5.65685415 0  44.5 5.65685415 0  44 5.65685415 0  43.5 5.65685415 0  43 5.65685415 0  42.5 5.65685415 0  42 5.65685415 0  41.5 5.65685415 0  41 5.65685415 0  40.5 5.65685415 0  40 5.65685415 0  39.5 5.65685415 0  39 5.65685415 0  38.5 5.65685415 0  38 5.65685415 0  37.5 5.65685415 0  37 5.65685415 0  36.5 5.65685415 0  36 5.65685415 0  35.5 5.65685415 0  35 5.65685415 0  34.5 5.65685415 0  34 5.65685415 0  33.5 5.65685415 0  33 5.65685415 0  32.5 5.65685415 0  32 5.65685415 0  31.5 5.65685415 0  31 5.65685415 0  30.5 5.65685415 0  30 5.65685415 0  29.5 5.65685415 0  29 5.65685415 0  28.5 5.65685415 0  28 5.65685415 0  27.5 5.65685415 0  27 5.65685415 0  26.5 5.65685415 0  26 5.65685415 0  25.5 5.65685415 0  25 5.65685415 0  24.5 5.65685415 0  24 5.65685415 0  23.5 5.65685415 0  23 5.65685415 0  22.5 5.65685415 0  22 5.65685415 0  21.5 5.65685415 0  21 5.65685415 0  20.5 5.65685415 0  20 5.65685415 0  19.5 5.65685415 0  19 5.65685415 0  18.5 5.65685415 0  18 5.65685415 0  17.5 5.65685415 0  17 5.65685415 0  16.5 5.65685415 0  16 5.65685415 0  15.5 5.65685415 0  15 5.65685415 0  14.5 5.65685415 0  14 5.65685415 0  13.5 5.65685415 0  13 5.65685415 0  12.5 5.65685415 0  12 5.65685415 0  11.5 5.65685415 0  11 5.65685415 0  10.5 5.65685415 0  10 5.65685415 0  9.5 5.65685415 0  9 5.65685415 0  8.5 5.65685415 0  8 5.65685415 0  7.5 5.65685415 0  7 5.65685415 0  6.5 5.65685415 0  6 5.65685415 0  5.5 5.65685415 0  5 5.65685415 0  4.5 5.65685415 0  4 5.65685415 0  3.5 5.65685415 0  3 5.65685415 0  2.5 5.65685415 0  2 5.65685415 0  1.5 5.65685415 0  1 5.65685415 0  0.5 5.65685415 0  50 4.71404505 0  50 3.77123618 0  50 2.82842708 0  50 1.88561809 0  50 0.942809045 0  49.5 0 0  49 0 0  48.5 0 0  48 0 0  47.5 0 0  47 0 0  46.5 0 0  46 0 0  45.5 0 0  45 0 0  44.5 0 0  44 0 0  43.5 0 0  43 0 0  42.5 0 0  42 0 0  41.5 0 0  41 0 0  40.5 0 0  40 0 0  39.5 0 0  39 0 0  38.5 0 0  38 0 0  37.5 0 0  37 0 0  36.5 0 0  36 0 0  35.5 0 0  35 0 0  34.5 0 0  34 0 0  33.5 0 0  33 0 0  32.5 0 0  32 0 0  31.5 0 0  31 0 0  30.5 0 0  30 0 0  29.5 0 0  29 0 0  28.5 0 0  28 0 0  27.5 0 0  27 0 0  26.5 0 0  26 0 0  25.5 0 0  25 0 0  24.5 0 0  24 0 0  23.5 0 0  23 0 0  22.5 0 0  22 0 0  21.5 0 0  21 0 0  20.5 0 0  20 0 0  19.5 0 0  19 0 0  18.5 0 0  18 0 0  17.5 0 0  17 0 0  16.5 0 0  16 0 0  15.5 0 0  15 0 0  14.5 0 0  14 0 0  13.5 0 0  13 0 0  12.5 0 0  12 0 0  11.5 0 0  11 0 0  10.5 0 0  10 0 0  9.5 0 0  9 0 0  8.5 0 0  8 0 0  7.5 0 0  7 0 0  6.5 0 0  6 0 0  5.5 0 0  5 0 0  4.5 0 0  4 0 0  3.5 0 0  3 0 0  2.5 0 0  2 0 0  1.5 0 0  1 0 0  0.5 0 0  50 0 1  50 0 2  50 0 3  0 2.33524275 0.893602192  0 2.87561393 1.93323028  0 4.2367816 0.876864135  0 2.00050235 2.65534091  0 0.981494486 2.34323239  0 3.78543234 1.61830366  0 3.30545568 0.887000024  0 0.812916458 1.58408713  0 1.71948838 1.71268857  0 1.28267908 0.8650629520000001  0 1.21973121 3.10775328  0.5 5.21972132 0.958802223  0.5 4.62159061 1.82634306  0.5 3.88091111 2.5758636  0.5 3.02052855 3.18424606  0.5 2.0669806 3.632725  0.5 1.04967844 3.90746784  1 5.21972132 0.958802223  1 4.62159061 1.82634306  1 3.88091111 2.5758636  1 3.02052855 3.18424606  1 2.0669806 3.632725  1 1.04967844 3.90746784  1.5 5.21972132 0.958802223  1.5 4.62159061 1.82634306  1.5 3.88091111 2.5758636  1.5 3.02052855 3.18424606  1.5 2.0669806 3.632725  1.5 1.04967844 3.90746784  2 5.21972132 0.958802223  2 4.62159061 1.82634306  2 3.88091111 2.5758636  2 3.02052855 3.18424606  2 2.0669806 3.632725  2 1.04967844 3.90746784  2.5 5.21972132 0.958802223  2.5 4.62159061 1.82634306  2.5 3.88091111 2.5758636  2.5 3.02052855 3.18424606  2.5 2.0669806 3.632725  2.5 1.04967844 3.90746784  3 5.21972132 0.958802223  3 4.62159061 1.82634306  3 3.88091111 2.5758636  3 3.02052855 3.18424606  3 2.0669806 3.632725  3 1.04967844 3.90746784  3.5 5.21972132 0.958802223  3.5 4.62159061 1.82634306  3.5 3.88091111 2.5758636  3.5 3.02052855 3.18424606  3.5 2.0669806 3.632725  3.5 1.04967844 3.90746784  4 5.21972132 0.958802223  4 4.62159061 1.82634306  4 3.88091111 2.5758636  4 3.02052855 3.18424606  4 2.0669806 3.632725  4 1.04967844 3.90746784  4.5 5.21972132 0.958802223  4.5 4.62159061 1.82634306  4.5 3.88091111 2.5758636  4.5 3.02052855 3.18424606  4.5 2.0669806 3.632725  4.5 1.04967844 3.90746784  5 5.21972132 0.958802223  5 4.62159061 1.82634306  5 3.88091111 2.5758636  5 3.02052855 3.18424606  5 2.0669806 3.632725  5 1.04967844 3.90746784  5.5 5.21972132 0.958802223  5.5 4.62159061 1.82634306  5.5 3.88091111 2.5758636  5.5 3.02052855 3.18424606  5.5 2.0669806 3.632725  5.5 1.04967844 3.90746784  6 5.21972132 0.958802223  6 4.62159061 1.82634306  6 3.88091111 2.5758636  6 3.02052855 3.18424606  6 2.0669806 3.632725  6 1.04967844 3.90746784  6.5 5.21972132 0.958802223  6.5 4.62159061 1.82634306  6.5 3.88091111 2.5758636  6.5 3.02052855 3.18424606  6.5 2.0669806 3.632725  6.5 1.04967844 3.90746784  7 5.21972132 0.958802223  7 4.62159061 1.82634306  7 3.88091111 2.5758636  7 3.02052855 3.18424606  7 2.0669806 3.632725  7 1.04967844 3.90746784  7.5 5.21972132 0.958802223  7.5 4.62159061 1.82634306  7.5 3.88091111 2.5758636  7.5 3.02052855 3.18424606  7.5 2.0669806 3.632725  7.5 1.04967844 3.90746784  8 5.21972132 0.958802223  8 4.62159061 1.82634306  8 3.88091111 2.5758636  8 3.02052855 3.18424606  8 2.0669806 3.632725  8 1.04967844 3.90746784  8.5 5.21972132 0.958802223  8.5 4.62159061 1.82634306  8.5 3.88091111 2.5758636  8.5 3.02052855 3.18424606  8.5 2.0669806 3.632725  8.5 1.04967844 3.90746784  9 5.21972132 0.958802223  9 4.62159061 1.82634306  9 3.88091111 2.5758636  9 3.02052855 3.18424606  9 2.0669806 3.632725  9 1.04967844 3.90746784  9.5 5.21972132 0.958802223  9.5 4.62159061 1.82634306  9.5 3.88091111 2.5758636  9.5 3.02052855 3.18424606  9.5 2.0669806 3.632725  9.5 1.04967844 3.90746784  10 5.21972132 0.958802223  10 4.62159061 1.82634306  10 3.88091111 2.5758636  10 3.02052855 3.18424606  10 2.0669806 3.632725  10 1.04967844 3.90746784  10.5 5.21972132 0.958802223  10.5 4.62159061 1.82634306  10.5 3.88091111 2.5758636  10.5 3.02052855 3.18424606  10.5 2.0669806 3.632725  10.5 1.04967844 3.90746784  11 5.21972132 0.958802223  11 4.62159061 1.82634306  11 3.88091111 2.5758636  11 3.02052855 3.18424606  11 2.0669806 3.632725  11 1.04967844 3.90746784  11.5 5.21972132 0.958802223  11.5 4.62159061 1.82634306  11.5 3.88091111 2.5758636  11.5 3.02052855 3.18424606  11.5 2.0669806 3.632725  11.5 1.04967844 3.90746784  12 5.21972132 0.958802223  12 4.62159061 1.82634306  12 3.88091111 2.5758636  12 3.02052855 3.18424606  12 2.0669806 3.632725  12 1.04967844 3.90746784  12.5 5.21972132 0.958802223  12.5 4.62159061 1.82634306  12.5 3.88091111 2.5758636  12.5 3.02052855 3.18424606  12.5 2.0669806 3.632725  12.5 1.04967844 3.90746784  13 5.21972132 0.958802223  13 4.62159061 1.82634306  13 3.88091111 2.5758636  13 3.02052855 3.18424606  13 2.0669806 3.632725  13 1.04967844 3.90746784  13.5 5.21972132 0.958802223  13.5 4.62159061 1.82634306  13.5 3.88091111 2.5758636  13.5 3.02052855 3.18424606  13.5 2.0669806 3.632725  13.5 1.04967844 3.90746784  14 5.21972132 0.958802223  14 4.62159061 1.82634306  14 3.88091111 2.5758636  14 3.02052855 3.18424606  14 2.0669806 3.632725  14 1.04967844 3.90746784  14.5 5.21972132 0.958802223  14.5 4.62159061 1.82634306  14.5 3.88091111 2.5758636  14.5 3.02052855 3.18424606  14.5 2.0669806 3.632725  14.5 1.04967844 3.90746784  15 5.21972132 0.958802223  15 4.62159061 1.82634306  15 3.88091111 2.5758636  15 3.02052855 3.18424606  15 2.0669806 3.632725  15 1.04967844 3.90746784  15.5 5.21972132 0.958802223  15.5 4.62159061 1.82634306  15.5 3.88091111 2.5758636  15.5 3.02052855 3.18424606  15.5 2.0669806 3.632725  15.5 1.04967844 3.90746784  16 5.21972132 0.958802223  16 4.62159061 1.82634306  16 3.88091111 2.5758636  16 3.02052855 3.18424606  16 2.0669806 3.632725  16 1.04967844 3.90746784  16.5 5.21972132 0.958802223  16.5 4.62159061 1.82634306  16.5 3.88091111 2.5758636  16.5 3.02052855 3.18424606  16.5 2.0669806 3.632725  16.5 1.04967844 3.90746784  17 5.21972132 0.958802223  17 4.62159061 1.82634306  17 3.88091111 2.5758636  17 3.02052855 3.18424606  17 2.0669806 3.632725  17 1.04967844 3.90746784  17.5 5.21972132 0.958802223  17.5 4.62159061 1.82634306  17.5 3.88091111 2.5758636  17.5 3.02052855 3.18424606  17.
[...]
<PointData  Vectors="f_261141-0"> 
<DataArray  type="Float64"  Name="f_261141-0"  NumberOfComponents="3" format="ascii">0.0000000000000000e+00 0.0000000000000000e+00 0.0000000000000000e+00  0.0000000000000000e+00 0.0000000000000000e+00 7.4312896963824771e-01  0.0000000000000000e+00 1.0550628697447100e+00 0.0000000000000000e+00  9.4708194332894848e+00 0.0000000000000000e+00 1.4277227857224664e+00  9.7424927920045157e+00 9.9403682041958952e-01 8.2883343743497684e-01  9.6364357025072938e+00 0.0000000000000000e+00 8.1618191053628297e-01  0.0000000000000000e+00 0.0000000000000000e+00 1.5744913293213164e-01  0.0000000000000000e+00 0.0000000000000000e+00 3.7273512388471047e-01  0.0000000000000000e+00 0.0000000000000000e+00 5.9231803382951231e-01  0.0000000000000000e+00 2.0141297995337373e-01 7.1334184143862689e-01  0.0000000000000000e+00 3.7600227661282243e-01 6.6284571711480367e-01  0.0000000000000000e+00 5.6091675051232237e-01 6.1244088126565277e-01  0.0000000000000000e+00 7.4541764005719546e-01 5.0760456389395325e-01  0.0000000000000000e+00 9.0815794475253320e-01 3.3104443607599415e-01  0.0000000000000000e+00 1.0201312096637711e+00 1.7410080643198400e-01  0.0000000000000000e+00 9.0246442293174767e-01 0.0000000000000000e+00  0.0000000000000000e+00 7.3404869717822108e-01 0.0000000000000000e+00  0.0000000000000000e+00 5.3493956285552824e-01 0.0000000000000000e+00  0.0000000000000000e+00 3.4194002895476394e-01 0.0000000000000000e+00  0.0000000000000000e+00 1.7155802999749947e-01 0.0000000000000000e+00  9.5908687545886301e-02 0.0000000000000000e+00 7.4693798260830746e-01  1.8958085251243534e-01 0.0000000000000000e+00 7.4413920458074956e-01  2.8498835927367522e-01 0.0000000000000000e+00 7.4600198043528276e-01  3.8213838954464152e-01 0.0000000000000000e+00 7.4830402262178730e-01  4.7411900751698405e-01 0.0000000000000000e+00 7.5429361794808047e-01  5.7636069632254205e-01 0.0000000000000000e+00 7.4987079336150353e-01  6.6938458227433906e-01 0.0000000000000000e+00 7.5266294513150178e-01  7.6774965958666253e-01 0.0000000000000000e+00 7.4599273179264403e-01  8.6479423658626675e-01 0.0000000000000000e+00 7.4674207264480796e-01  9.5810090418895744e-01 0.0000000000000000e+00 7.5034587613482906e-01  1.0520601353062240e+00 0.0000000000000000e+00 7.5419636387397060e-01  1.1469363708411919e+00 0.0000000000000000e+00 7.6170247179300710e-01  1.2429393168892209e+00 0.0000000000000000e+00 7.6980878240021988e-01  1.3507915477263550e+00 0.0000000000000000e+00 7.5916804697379903e-01  1.4471315624225698e+00 0.0000000000000000e+00 7.6157531130206135e-01  1.5471502902020997e+00 0.0000000000000000e+00 7.5849312174897265e-01  1.6432198949410335e+00 0.0000000000000000e+00 7.5935898532317136e-01  1.7390206047884202e+00 0.0000000000000000e+00 7.5904177087566427e-01  1.8340531102462663e+00 0.0000000000000000e+00 7.6339439611048998e-01  1.9267542364170887e+00 0.0000000000000000e+00 7.7280958408596367e-01  2.0199967398750007e+00 0.0000000000000000e+00 7.8536273686378077e-01  2.1195072892141429e+00 0.0000000000000000e+00 7.8208303211125563e-01  2.2172081430507822e+00 0.0000000000000000e+00 7.8654013331257921e-01  2.3148353859339181e+00 0.0000000000000000e+00 7.8398619244259393e-01  2.4089345310691788e+00 0.0000000000000000e+00 7.9460020001500498e-01  2.5059838834739141e+00 0.0000000000000000e+00 7.9512563735179242e-01  2.6035554703395247e+00 0.0000000000000000e+00 7.9623603765712736e-01  2.6970809223380519e+00 0.0000000000000000e+00 8.0793298798773205e-01  2.7926634510912804e+00 0.0000000000000000e+00 8.0980084972066102e-01  2.8888984045296136e+00 0.0000000000000000e+00 8.0770023184221529e-01  2.9791342346209331e+00 0.0000000000000000e+00 8.2450324361871208e-01  3.0767748661835519e+00 0.0000000000000000e+00 8.2484626744629042e-01  3.1713600479101420e+00 0.0000000000000000e+00 8.2880177721020998e-01  3.2707005506881339e+00 0.0000000000000000e+00 8.2252097425535609e-01  3.3691036962651979e+00 0.0000000000000000e+00 8.2329877932086348e-01  3.4669253790599464e+00 0.0000000000000000e+00 8.3011565318370206e-01  3.5625852881621003e+00 0.0000000000000000e+00 8.3736268098303390e-01  3.6559261003770445e+00 0.0000000000000000e+00 8.4938142843213038e-01  3.7549725773143914e+00 0.0000000000000000e+00 8.4988796387962884e-01  3.8484109981462202e+00 0.0000000000000000e+00 8.6373407413022796e-01  3.9426642045105234e+00 0.0000000000000000e+00 8.7581662657288006e-01  4.0407275118564208e+00 0.0000000000000000e+00 8.7889490329955600e-01  4.1317997450987249e+00 0.0000000000000000e+00 8.8602085029132538e-01  4.2331999787238592e+00 0.0000000000000000e+00 8.7563236828223234e-01  4.3264483422489590e+00 0.0000000000000000e+00 8.8428788218457288e-01  4.4212191691703167e+00 0.0000000000000000e+00 8.9488511336025911e-01  4.5155502758796455e+00 0.0000000000000000e+00 9.1303865086786107e-01  4.6115415864182525e+00 0.0000000000000000e+00 9.2601543568650502e-01  4.7082549354804630e+00 0.0000000000000000e+00 9.3534531870678406e-01  4.8058156516330106e+00 0.0000000000000000e+00 9.4144957428494069e-01  4.9044057970008890e+00 0.0000000000000000e+00 9.4652466689356052e-01  4.9957335145052326e+00 0.0000000000000000e+00 9.6772356313479924e-01  5.0952537811683714e+00 0.0000000000000000e+00 9.6982804321126592e-01  5.1868918150222614e+00 0.0000000000000000e+00 9.9160865705457368e-01  5.2853773766542052e+00 0.0000000000000000e+00 9.9279931434625335e-01  5.3866171067491013e+00 0.0000000000000000e+00 9.9708118148634117e-01  5.4830508504856272e+00 0.0000000000000000e+00 1.0049000972548932e+00  5.5781044684576084e+00 0.0000000000000000e+00 1.0210667822804786e+00  5.6730329076355774e+00 0.0000000000000000e+00 1.0382158328307947e+00  5.7699270297566549e+00 0.0000000000000000e+00 1.0422711728888014e+00  5.8665568958104757e+00 0.0000000000000000e+00 1.0376727192823971e+00  5.9596356096712801e+00 0.0000000000000000e+00 1.0591313857584295e+00  6.0566240185609761e+00 0.0000000000000000e+00 1.0621148041600688e+00  6.1552018689515631e+00 0.0000000000000000e+00 1.0683262850668804e+00  6.2469383622371186e+00 0.0000000000000000e+00 1.0934573628712880e+00  6.3454023475854218e+00 0.0000000000000000e+00 1.1097944490869216e+00  6.4475048682064182e+00 0.0000000000000000e+00 1.1214769561410500e+00  6.5398027011316993e+00 0.0000000000000000e+00 1.1341430695224668e+00  6.6337765087709695e+00 0.0000000000000000e+00 1.1477660983230469e+00  6.7286006674295749e+00 0.0000000000000000e+00 1.1560052146883246e+00  6.8227070632565399e+00 0.0000000000000000e+00 1.1709482547261856e+00  6.9175079555419732e+00 0.0000000000000000e+00 1.1884766780975464e+00  7.0162018460022120e+00 0.0000000000000000e+00 1.1890760503301019e+00  7.1120305221963527e+00 0.0000000000000000e+00 1.2034114410186085e+00  7.2143230329733514e+00 0.0000000000000000e+00 1.2114342178456803e+00  7.3083572097171059e+00 0.0000000000000000e+00 1.2303059359399993e+00  7.4061971750509858e+00 0.0000000000000000e+00 1.2451006580147026e+00  7.4991463844174202e+00 0.0000000000000000e+00 1.2582049635209918e+00  7.5984300768626181e+00 0.0000000000000000e+00 1.2641100405730761e+00  7.6917950443714380e+00 0.0000000000000000e+00 1.2785942229615559e+00  7.7886892002195482e+00 0.0000000000000000e+00 1.2959677683126838e+00  7.8904794949264252e+00 0.0000000000000000e+00 1.3021775137147151e+00  7.9908818762259726e+00 0.0000000000000000e+00 1.3145432541544386e+00  8.0847608852294819e+00 0.0000000000000000e+00 1.3357526532259949e+00  8.1844663374426574e+00 0.0000000000000000e+00 1.3405474907613801e+00  8.2775693549005727e+00 0.0000000000000000e+00 1.3587344695478265e+00  8.3763617533180188e+00 0.0000000000000000e+00 1.3707906638042842e+00  8.4736394263604087e+00 0.0000000000000000e+00 1.3755164373037103e+00  8.5735802971434296e+00 0.0000000000000000e+00 1.3726066861488726e+00  8.6671919316919013e+00 0.0000000000000000e+00 1.3827124770884673e+00  8.7643900079326595e+00 0.0000000000000000e+00 1.3796299931124374e+00  8.8579578517486333e+00 0.0000000000000000e+00 1.3819671846711867e+00  8.9489622684259285e+00 0.0000000000000000e+00 1.3835607257259497e+00  9.0356515636989432e+00 0.0000000000000000e+00 1.3845616979618713e+00  9.1176209772206036e+00 0.0000000000000000e+00 1.3827564771894949e+00  9.1959428592987464e+00 0.0000000000000000e+00 1.3833101132306018e+00  9.2712513504706386e+00 0.0000000000000000e+00 1.3913667943321859e+00  9.3438155059956873e+00 0.0000000000000000e+00 1.3939866600983977e+00  9.4098144320837207e+00 0.0000000000000000e+00 1.4027270995123529e+00  9.4816303349151276e+00 1.3223531714102452e-01 1.4145115491492546e+00  9.5201883084573851e+00 2.7507265030553557e-01 1.3950035070479878e+00  9.5601209897627530e+00 4.2867002636222740e-01 1.3599325024493412e+00  9.6081655767193190e+00 5.9807044144946897e-01 1.3092111505557951e+00  9.6988565123159063e+00 7.8762763755521270e-01 1.1854264577539078e+00  9.7241616495833156e+00 9.1274815446905577e-01 1.0006201232719032e+00  9.6561073916569100e+00 1.0031314755853682e+00 8.1500734953916731e-01  9.5646334964256425e+00 1.0142221986040272e+00 7.9888214012849512e-01  9.4722208911143273e+00 1.0234566809153425e+00 7.8447918003152339e-01  9.3743809242661147e+00 1.0271985811785960e+00 7.7654260883657156e-01  9.2818041909379634e+00 1.0328348423013547e+00 7.5981475943063259e-01  9.1878503017340023e+00 1.0459039323477761e+00 7.3446035634260476e-01  9.0918005921567548e+00 1.0441035411769441e+00 7.1212204906369792e-01  8.9905132744095937e+00 1.0480551589525762e+00 6.9720703690176145e-01  8.8911832410345095e+00 1.0555210890470914e+00 6.8135509905420999e-01  8.7884282436734384e+00 1.0584108585745744e+00 6.6871031234661016e-01  8.6872324464727892e+00 1.0600514995274377e+00 6.5229608228306424e-01  8.5870274025687472e+00 1.0692828933517506e+00 6.3374492450777542e-01  8.4880311686808430e+00 1.0707147916804205e+00 6.2543192642084400e-01  8.3884439688501544e+00 1.0682077518245003e+00 6.1164275240153931e-01  8.2912112053014759e+00 1.0692309386032477e+00 5.8361043614039299e-01  8.1871041741612878e+00 1.0605312943247025e+00 5.6947874095986217e-01  8.0945613990044354e+00 1.0638911848944552e+00 5.6852842883332744e-01  7.9982723858061107e+00 1.0761781120101757e+00 5.6386800562431694e-01  7.9047704294568710e+00 1.0827291968593500e+00 5.5269741337566636e-01  7.8087053055759306e+00 1.0864275747009566e+00 5.4534459490989839e-01  7.7107672143511223e+00 1.0912925630241090e+00 5.3975079293211425e-01  7.6107270203113622e+00 1.0860629598651745e+00 5.3778194658721434e-01  7.5112974350281805e+00 1.0927975798995164e+00 5.2249836954459250e-01  7.4128704683426454e+00 1.0775109479222140e+00 5.0999546721364231e-01  7.3176091969374735e+00 1.0780582141405501e+00 4.8807436941822568e-01  7.2209882606318514e+00 1.0746746353977770e+00 4.7162701697109399e-01  7.1218620821547791e+00 1.0741153111029673e+00 4.5543427335513781e-01  7.0240200671336046e+00 1.0740721296297162e+00 4.3561251556196023e-01  6.9276948600975885e+00 1.0744163790919685e+00 4.1941839061655928e-01  6.8312376452580619e+00 1.0709885306471516e+00 4.0787479090966516e-01  6.7323698994632055e+00 1.0693153581632788e+00 3.9405596784517061e-01  6.6346583744529868e+00 1.0723379604090699e+00 3.7778650260715452e-01  6.5366101414776239e+00 1.0656055397717561e+00 3.6204804716062255e-01  6.4382072932623435e+00 1.0603508312232814e+00 3.4400540656451323e-01  6.3411538152691520e+00 1.0590730985121184e+00 3.3065213648500130e-01  6.2442557686082081e+00 1.0573618612521085e+00 3.1581552545772457e-01  6.1460026538109682e+00 1.0612055805318732e+00 3.0084758259520505e-01  6.0457795218880630e+00 1.0630015154856287e+00 2.8992004806184213e-01  5.9469194004352337e+00 1.0658685665106860e+00 2.7307806016785208e-01  5.8499912820741722e+00 1.0558481770642762e+00 2.5743816508814399e-01  5.7510399913236805e+00 1.0514810504292191e+00 2.4242003176916596e-01  5.6539033939092436e+00 1.0542196586479122e+00 2.2893399444406465e-01  5.5580529975191606e+00 1.0441955248717636e+00 2.2534492406215564e-01  5.4613901700748846e+00 1.0456096000742676e+00 2.1833551717871069e-01  5.3670834308200623e+00 1.0541850646260065e+00 2.0695759962232593e-01  5.2718470748376518e+00 1.0542064480110396e+00 2.0376363353347202e-01  5.1777105814269317e+00 1.0601436131122506e+00 1.9679576213187072e-01  5.0805492224464626e+00 1.0631894121752017e+00 1.8876732876232152e-01  4.9811742541804858e+00 1.0575973359864692e+00 1.8708319866871354e-01  4.8799953508887004e+00 1.0645796132865175e+00 1.8301646701730928e-01  4.7809514323854163e+00 1.0635878565480046e+00 1.7345820166085360e-01  4.6818592628896498e+00 1.0718443438943253e+00 1.5520204228124099e-01  4.5839371999435761e+00 1.0652509278206657e+00 1.4922851580998622e-01  4.4823213461499432e+00 1.0672668804586074e+00 1.2978332775829013e-01  4.3874369047261172e+00 1.0659368312329258e+00 1.1853656810810552e-01  4.2874851464054746e+00 1.0644066223798878e+00 1.1817179913076906e-01  4.1879149851323048e+00 1.0619277796437452e+00 1.2253530754333367e-01  4.0910508631847531e+00 1.0708877690620460e+00 1.1411632446890510e-01  3.9943833971665574e+00 1.0718371212861597e+00 1.0806230355770841e-01  3.8995544498498060e+00 1.0719944895567453e+00 9.9524615940754457e-02  3.7995778635395792e+00 1.0778580289553785e+00 8.9060156082492375e-02  3.7016896197647964e+00 1.0677216709198865e+00 8.1850765857443608e-02  3.6004182812883214e+00 1.0670687021823668e+00 7.7722430557416108e-02  3.5047934098740652e+00 1.0716945628097918e+00 6.3508111206004469e-02  3.4062160221047235e+00 1.0653124323861354e+00 6.3633194725184986e-02  3.3070199877965578e+00 1.0509540180377326e+00 6.7809758434462422e-02  3.2112883637856169e+00 1.0577115961342167e+00 5.2062625542390252e-02  3.1142280655517069e+00 1.0566060626314928e+00 4.1231525377052464e-02  3.0193891030218176e+00 1.0526230731577120e+00 3.5966434584063012e-02  2.9238268731818624e+00 1.0553367752835476e+00 3.1463299832744158e-02  2.8252262356955429e+00 1.0565574207984685e+00 3.2922355028540219e-02  2.7263415251231193e+00 1.0604741483914688e+00 3.0589403145227182e-02  2.6293058075316287e+00 1.0656118607341982e+00 2.4179058098059480e-02  2.5305411996375935e+00 1.0620357366596662e+00 2.4563220838631137e-02  2.4320863442109011e+00 1.0636011021933127e+00 2.1828544149914586e-02  2.3342672560653295e+00 1.0583962958302269e+00 2.2621195298527699e-02  2.2369823463070939e+00 1.0639489821087713e+00 1.8554496862208794e-02  2.1433132240145900e+00 1.0694256935725031e+00 1.4844456351886548e-02  2.0434811465326006e+00 1.0723561178231085e+00 1.3344872585614856e-02  1.9434944678306219e+00 1.0632394451509171e+00 2.1947956911009453e-02  1.8476437478144698e+00 1.0737019633823941e+00 1.6610380307573121e-02  1.7485803733875327e+00 1.0740899342582639e+00 1.7327306259404072e-02  1.6520235562907708e+00 1.0611732191632488e+00 2.1929349971658879e-02  1.5548439823893372e+00 1.0659277966339693e+00 1.4727883075402109e-02  1.4604927828095691e+00 1.0664903200842351e+00 8.5506028526392865e-03  1.3648476406542152e+00 1.0676065394125720e+00 9.4479498761832741e-03  1.2668433315984249e+00 1.0634608946029314e+00 1.8151147793385523e-02  1.1683939460765171e+00 1.0746373805044835e+00 1.2832954435939108e-02  1.0699100401130597e+00 1.0748878761052896e+00 9.5495131184970723e-03  9.7114719486515322e-01 1.0778773566240918e+00 9.4976389517600589e-03  8.7305748109425740e-01 1.0733685295727498e+00 3.8198966444771441e-03  7.7664715043590882e-01 1.0729697463659809e+00 3.2373414561182763e-03  6.7833276279238064e-01 1.0774611975201756e+00 1.3144325888320701e-03  5.7779232887327558e-01 1.0746917237128144e+00 1.0189861999591748e-02  4.8211171331144764e-01 1.0708521999980749e+00 1.3070670542275835e-02  3.8535059920570897e-01 1.0761555179793714e+00 6.2346093465209546e-03  2.8663242224157759e-01 1.0646116006789921e+00 4.6805518824488256e-03  1.9115262647841375e-01 1.0601149926938933e+00 0.0000000000000000e+00  9.4327308159723261e-02 1.0525096264091116e+00 0.0000000000000000e+00  9.7240093128551912e+00 8.1776094600092719e-01 8.2843014594005904e-01  9.7039562087110589e+00 6.4513119656827389e-01 8.2222298205435551e-01  9.6844895394660266e+00 4.8072110373923482e-01 8.1324807148071032e-01  9.6729208983547590e+00 3.1562283458363477e-01 8.2471554515268541e-01  9.6487137464177160e+00 1.4545971581926492e-01 8.1048938046368879e-01  9.5531544151500931e+00 0.0000000000000000e+00 7.8756347938144289e-01  9.4729783501939870e+00 0.0000000000000000e+00 7.6851006526353294e-01  9.3882674113787719e+00 0.0000000000000000e+00 7.4484589722864392e-01  9.3012171505523451e+00 0.0000000000000000e+00 7.2436660129582797e-01  9.2097535560556683e+00 0.0000000000000000e+00 7.1656753116429761e-01  9.1161409183716398e+00 0.0000000000000000e+00 7.0077522998075892e-01  9.0237382410624871e+00 0.0000000000000000e+00 6.8595449732881408e-01  8.9262291077300855e+00 0.0000000000000000e+00 6.7677419473367384e-01  8.8318214177924705e+00 0.0000000000000000e+00 6.6585412798179544e-01  8.7375404436840132e+00 0.0000000000000000e+00 6.4866174898436135e-01  8.6423477397668815e+00 0.0000000000000000e+00 6.4258382018883176e-01  8.5504234106214572e+00 0.0000000000000000e+00 6.2989671355436250e-01  8.4571678038580398e+00 0.0000000000000000e+00 6.2671771249387864e-01  8.3579533800898549e+00 0.0000000000000000e+00 6.2290883115179696e-01  8.2687777766674984e+00 0.0000000000000000e+00 6.0332941116614247e-01  8.1770370379885886e+00 0.0000000000000000e+00 5.8528985754670693e-01  8.0822539327335576e+00 0.0000000000000000e+00 5.7713790570189283e-01  7.9880359603565836e+00 0.0000000000000000e+00 5.6409308078024745e-01  7.8932614971062680e+00 0.0000000000000000e+00 5.3980809353105375e-01  7.7982564205319447e+00 0.0000000000000000e+00 5.2824963858836804e-01  7.7011162438540914e+00 0.0000000000000000e+00 5.1655139052968502e-01  7.6030994710211370e+00 0.0000000000000000e+00 5.1475390383802966e-01  7.5068001775795246e+00 0.0000000000000000e+00 5.0406694360788273e-01  7.4098998142748211e+00 0.0000000000000000e+00 4.8799884090176010e-01  7.3137426603484874e+00 0.0000000000000000e+00 4.7941436302006496e-01  7.2155344288450811e+00 0.0000000000000000e+00 4.7343560742812235e-01  7.1169546856410966e+00 0.0000000000000000e+00 4.5687619447646421e-01  7.0185044511170451e+00 0.0000000000000000e+00 4.4133855304974695e-01  6.9216890969933154e+00 0.0000000000000000e+00 4.2227119064956925e-01  6.8223057798747107e+00 0.0000000000000000e+00 4.1253794921736175e-01  6.7296396921057537e+00 0.0000000000000000e+00 3.9584805966454362e-01  6.6356344669135687e+00 0.0000000000000000e+00 3.8332581803276472e-01  6.5396859297932650e+00 0.0000000000000000e+00 3.7606599164476018e-01  6.4407603086266541e+00 0.0000000000000000e+00 3.6091087617576273e-01  6.3397003023329148e+00 0.0000000000000000e+00 3.4691052972140973e-01  6.2422301662802600e+00 0.0000000000000000e+00 3.3269628314167360e-01  6.1438075284135074e+00 0.0000000000000000e+00 3.2068111649896119e-01  6.0434956184234627e+00 0.0000000000000000e+00 3.1568191654287026e-01  5.9447083535901255e+00 0.0000000000000000e+00 3.1033443781570030e-01  5.8500821164307313e+00 0.0000000000000000e+00 3.0618012419033386e-01  5.7549342381511206e+00 0.0000000000000000e+00 2.9364623890055347e-01  5.6604336808590103e+00 0.0000000000000000e+00 2.8633470933567479e-01  5.5609430730034850e+00 0.0000000000000000e+00 2.7659664517225163e-01  5.4690338447977842e+00 0.0000000000000000e+00 2.5602689486581842e-01  5.3728943454085298e+00 0.0000000000000000e+00 2.4187667245219940e-01  5.2730282823020600e+00 0.0000000000000000e+00 2.4033818317783065e-01  5.1738170246251904e+00 0.0000000000000000e+00 2.2887803248259417e-01  5.0785629111479267e+00 0.0000000000000000e+00 2.1845963773108112e-01  4.9742563981828578e+00 0.0000000000000000e+00 2.1001394682772323e-01  4.8781404936422748e+00 0.0000000000000000e+00 1.9700209443016786e-01  4.7818892676029510e+00 0.0000000000000000e+00 1.7556479164217556e-01  4.6839964036611050e+00 0.0000000000000000e+00 1.7115802553474063e-01  4.5873641405124062e+00 0.0000000000000000e+00 1.5655852507505152e-01  4.4872602979231582e+00 0.0000000000000000e+00 1.5780540198358436e-01  4.3834882421112846e+00 0.0000000000000000e+00 1.5050018601002804e-01  