<?xml version="1.0"?>
<VTKFile type="UnstructuredGrid"  version="0.1"  >
<UnstructuredGrid>
<Piece  NumberOfPoints="3069" NumberOfCells="12882">
<Points>
<DataArray  type="Float64"  NumberOfComponents="3"  format="ascii">0 0 0  0 0 4  0 5.65685415 0  50 0 4  50 5.65685415 0  50 0 0  0 0 1  0 0 2  0 0 3  0 1.04967844 3.90746784  0 2.0669806 3.632725  0 3.02052855 3.18424606  0 3.88091111 2.5758636  0 4.62159061 1.82634306  0 5.21972132 0.958802283  0 4.71404505 0  0 3.77123618 0  0 2.82842708 0  0 1.88561809 0  0 0.942809045 0  0.5 0 4  1 0 4  1.5 0 4  2 0 4  2.5 0 4  3 0 4  3.5 0 4  4 0 4  4.5 0 4  5 0 4  5.5 0 4  6 0 4  6.5 0 4  7 0 4  7.5 0 4  8 0 4  8.5 0 4  9 0 4  9.5 0 4  10 0 4  10.5 0 4  11 0 4  11.5 0 4  12 0 4  12.5 0 4  13 0 4  13.5 0 4  14 0 4  14.5 0 4  15 0 4  15.5 0 4  16 0 4  16.5 0 4  17 0 4  17.5 0 4  18 0 4  18.5 0 4  19 0 4  19.5 0 4  20 0 4  20.5 0 4  21 0 4  21.5 0 4  22 0 4  22.5 0 4  23 0 4  23.5 0 4  24 0 4  24.5 0 4  25 0 4  25.5 0 4  26 0 4  26.5 0 4  27 0 4  27.5 0 4  28 0 4  28.5 0 4  29 0 4  29.5 0 4  30 0 4  30.5 0 4  31 0 4  31.5 0 4  32 0 4  32.5 0 4  33 0 4  33.5 0 4  34 0 4  34.5 0 4  35 0 4  35.5 0 4  36 0 4  36.5 0 4  37 0 4  37.5 0 4  38 0 4  38.5 0 4  39 0 4  39.5 0 4  40 0 4  40.5 0 4  41 0 4  41.5 0 4  42 0 4  42.5 0 4  43 0 4  43.5 0 4  44 0 4  44.5 0 4  45 0 4  45.5 0 4  46 0 4  46.5 0 4  47 0 4  47.5 0 4  48 0 4  48.5 0 4  49 0 4  49.5 0 4  50 1.04967844 3.90746784  50 2.0669806 3.632725  50 3.02052855 3.18424606  50 3.88091111 2.5758636  50 4.62159061 1.82634306  50 5.21972132 0.958802283  49.5 5.65685415 0  49 5.65685415 0  48.5 5.65685415 0  48 5.65685415 0  47.5 5.65685415 0  47 5.65685415 0  46.5 5.65685415 0  46 5.65685415 0  45.5 5.65685415 0  45 5.65685415 0  44.5 5.65685415 0  44 5.65685415 0  43.5 5.65685415 0  43 5.65685415 0  42.5 5.65685415 0  42 5.65685415 0  41.5 5.65685415 0  41 5.65685415 0  40.5 5.65685415 0  40 5.65685415 0  39.5 5.65685415 0  39 5.65685415 0  38.5 5.65685415 0  38 5.65685415 0  37.5 5.65685415 0  37 5.65685415 0  36.5 5.65685415 0  36 5.65685415 0  35.5 5.65685415 0  35 5.65685415 0  34.5 5.65685415 0  34 5.65685415 0  33.5 5.65685415 0  33 5.65685415 0  32.5 5.65685415 0  32 5.65685415 0  31.5 5.65685415 0  31 5.65685415 0  30.5 5.65685415 0  30 5.65685415 0  29.5 5.65685415 0  29 5.65685415 0  28.5 5.65685415 0  28 5.65685415 0  27.5 5.65685415 0  27 5.65685415 0  26.5 5.65685415 0  26 5.65685415 0  25.5 5.65685415 0  25 5.65685415 0  24.5 5.65685415 0  24 5.65685415 0  23.5 5.65685415 0  23 5.65685415 0  22.5 5.65685415 0  22 5.65685415 0  21.5 5.65685415 0  21 5.65685415 0  20.5 5.65685415 0  20 5.65685415 0  19.5 5.65685415 0  19 5.65685415 0  18.5 5.65685415 0  18 5.65685415 0  17.5 5.65685415 0  17 5.65685415 0  16.5 5.65685415 0  16 5.65685415 0  15.5 5.65685415 0  15 5.65685415 0  14.5 5.65685415 0  14 5.65685415 0  13.5 5.65685415 0  13 5.65685415 0  12.5 5.65685415 0  12 5.65685415 0  11.5 5.65685415 0  11 5.65685415 0  10.5 5.65685415 0  10 5.65685415 0  9.5 5.65685415 0  9 5.65685415 0  8.5 5.65685415 0  8 5.65685415 0  7.5 5.65685415 0  7 5.65685415 0  6.5 5.65685415 0  6 5.65685415 0  5.5 5.65685415 0  5 5.65685415 0  4.5 5.65685415 0  4 5.65685415 0  3.5 5.65685415 0  3 5.65685415 0  2.5 5.65685415 0  2 5.65685415 0  1.5 5.65685415 0  1 5.65685415 0  0.5 5.65685415 0  50 4.71404505 0  50 3.77123618 0  50 2.82842708 0  50 1.88561809 0  50 0.942809045 0  49.5 0 0  49 0 0  48.5 0 0  48 0 0  47.5 0 0  47 0 0  46.5 0 0  46 0 0  45.5 0 0  45 0 0  44.5 0 0  44 0 0  43.5 0 0  43 0 0  42.5 0 0  42 0 0  41.5 0 0  41 0 0  40.5 0 0  40 0 0  39.5 0 0  39 0 0  38.5 0 0  38 0 0  37.5 0 0  37 0 0  36.5 0 0  36 0 0  35.5 0 0  35 0 0  34.5 0 0  34 0 0  33.5 0 0  33 0 0  32.5 0 0  32 0 0  31.5 0 0  31 0 0  30.5 0 0  30 0 0  29.5 0 0  29 0 0  28.5 0 0  28 0 0  27.5 0 0  27 0 0  26.5 0 0  26 0 0  25.5 0 0  25 0 0  24.5 0 0  24 0 0  23.5 0 0  23 0 0  22.5 0 0  22 0 0  21.5 0 0  21 0 0  20.5 0 0  20 0 0  19.5 0 0  19 0 0  18.5 0 0  18 0 0  17.5 0 0  17 0 0  16.5 0 0  16 0 0  15.5 0 0  15 0 0  14.5 0 0  14 0 0  13.5 0 0  13 0 0  12.5 0 0  12 0 0  11.5 0 0  11 0 0  10.5 0 0  10 0 0  9.5 0 0  9 0 0  8.5 0 0  8 0 0  7.5 0 0  7 0 0  6.5 0 0  6 0 0  5.5 0 0  5 0 0  4.5 0 0  4 0 0  3.5 0 0  3 0 0  2.5 0 0  2 0 0  1.5 0 0  1 0 0  0.5 0 0  50 0 1  50 0 2  50 0 3  0 2.33524275 0.893602192  0 2.87561393 1.93323028  0 4.2367816 0.876864135  0 2.00050235 2.65534091  0 0.981494486 2.34323239  0 3.78543234 1.61830366  0 3.30545568 0.887000024  0 0.812916458 1.58408713  0 1.71948838 1.71268857  0 1.28267908 0.8650629520000001  0 1.21973121 3.10775328  0.5 5.21972132 0.958802223  0.5 4.62159061 1.82634306  0.5 3.88091111 2.5758636  0.5 3.02052855 3.18424606  0.5 2.0669806 3.632725  0.5 1.04967844 3.90746784  1 5.21972132 0.958802223  1 4.62159061 1.82634306  1 3.88091111 2.5758636  1 3.02052855 3.18424606  1 2.0669806 3.632725  1 1.04967844 3.90746784  1.5 5.21972132 0.958802223  1.5 4.62159061 1.82634306  1.5 3.88091111 2.5758636  1.5 3.02052855 3.18424606  1.5 2.0669806 3.632725  1.5 1.04967844 3.90746784  2 5.21972132 0.958802223  2 4.62159061 1.82634306  2 3.88091111 2.5758636  2 3.02052855 3.18424606  2 2.0669806 3.632725  2 1.04967844 3.90746784  2.5 5.21972132 0.958802223  2.5 4.62159061 1.82634306  2.5 3.88091111 2.5758636  2.5 3.02052855 3.18424606  2.5 2.0669806 3.632725  2.5 1.04967844 3.90746784  3 5.21972132 0.958802223  3 4.62159061 1.82634306  3 3.88091111 2.5758636  3 3.02052855 3.18424606  3 2.0669806 3.632725  3 1.04967844 3.90746784  3.5 5.21972132 0.958802223  3.5 4.62159061 1.82634306  3.5 3.88091111 2.5758636  3.5 3.02052855 3.18424606  3.5 2.0669806 3.632725  3.5 1.04967844 3.90746784  4 5.21972132 0.958802223  4 4.62159061 1.82634306  4 3.88091111 2.5758636  4 3.02052855 3.18424606  4 2.0669806 3.632725  4 1.04967844 3.90746784  4.5 5.21972132 0.958802223  4.5 4.62159061 1.82634306  4.5 3.88091111 2.5758636  4.5 3.02052855 3.18424606  4.5 2.0669806 3.632725  4.5 1.04967844 3.90746784  5 5.21972132 0.958802223  5 4.62159061 1.82634306  5 3.88091111 2.5758636  5 3.02052855 3.18424606  5 2.0669806 3.632725  5 1.04967844 3.90746784  5.5 5.21972132 0.958802223  5.5 4.62159061 1.82634306  5.5 3.88091111 2.5758636  5.5 3.02052855 3.18424606  5.5 2.0669806 3.632725  5.5 1.04967844 3.90746784  6 5.21972132 0.958802223  6 4.62159061 1.82634306  6 3.88091111 2.5758636  6 3.02052855 3.18424606  6 2.0669806 3.632725  6 1.04967844 3.90746784  6.5 5.21972132 0.958802223  6.5 4.62159061 1.82634306  6.5 3.88091111 2.5758636  6.5 3.02052855 3.18424606  6.5 2.0669806 3.632725  6.5 1.04967844 3.90746784  7 5.21972132 0.958802223  7 4.62159061 1.82634306  7 3.88091111 2.5758636  7 3.02052855 3.18424606  7 2.0669806 3.632725  7 1.04967844 3.90746784  7.5 5.21972132 0.958802223  7.5 4.62159061 1.82634306  7.5 3.88091111 2.5758636  7.5 3.02052855 3.18424606  7.5 2.0669806 3.632725  7.5 1.04967844 3.90746784  8 5.21972132 0.958802223  8 4.62159061 1.82634306  8 3.88091111 2.5758636  8 3.02052855 3.18424606  8 2.0669806 3.632725  8 1.04967844 3.90746784  8.5 5.21972132 0.958802223  8.5 4.62159061 1.82634306  8.5 3.88091111 2.5758636  8.5 3.02052855 3.18424606  8.5 2.0669806 3.632725  8.5 1.04967844 3.90746784  9 5.21972132 0.958802223  9 4.62159061 1.82634306  9 3.88091111 2.5758636  9 3.02052855 3.18424606  9 2.0669806 3.632725  9 1.04967844 3.90746784  9.5 5.21972132 0.958802223  9.5 4.62159061 1.82634306  9.5 3.88091111 2.5758636  9.5 3.02052855 3.18424606  9.5 2.0669806 3.632725  9.5 1.04967844 3.90746784  10 5.21972132 0.958802223  10 4.62159061 1.82634306  10 3.88091111 2.5758636  10 3.02052855 3.18424606  10 2.0669806 3.632725  10 1.04967844 3.90746784  10.5 5.21972132 0.958802223  10.5 4.62159061 1.82634306  10.5 3.88091111 2.5758636  10.5 3.02052855 3.18424606  10.5 2.0669806 3.632725  10.5 1.04967844 3.90746784  11 5.21972132 0.958802223  11 4.62159061 1.82634306  11 3.88091111 2.5758636  11 3.02052855 3.18424606  11 2.0669806 3.632725  11 1.04967844 3.90746784  11.5 5.21972132 0.958802223  11.5 4.62159061 1.82634306  11.5 3.88091111 2.5758636  11.5 3.02052855 3.18424606  11.5 2.0669806 3.632725  11.5 1.04967844 3.90746784  12 5.21972132 0.958802223  12 4.62159061 1.82634306  12 3.88091111 2.5758636  12 3.02052855 3.18424606  12 2.0669806 3.632725  12 1.04967844 3.90746784  12.5 5.21972132 0.958802223  12.5 4.62159061 1.82634306  12.5 3.88091111 2.5758636  12.5 3.02052855 3.18424606  12.5 2.0669806 3.632725  12.5 1.04967844 3.90746784  13 5.21972132 0.958802223  13 4.62159061 1.82634306  13 3.88091111 2.5758636  13 3.02052855 3.18424606  13 2.0669806 3.632725  13 1.04967844 3.90746784  13.5 5.21972132 0.958802223  13.5 4.62159061 1.82634306  13.5 3.88091111 2.5758636  13.5 3.02052855 3.18424606  13.5 2.0669806 3.632725  13.5 1.04967844 3.90746784  14 5.21972132 0.958802223  14 4.62159061 1.82634306  14 3.88091111 2.5758636  14 3.02052855 3.18424606  14 2.0669806 3.632725  14 1.04967844 3.90746784  14.5 5.21972132 0.958802223  14.5 4.62159061 1.82634306  14.5 3.88091111 2.5758636  14.5 3.02052855 3.18424606  14.5 2.0669806 3.632725  14.5 1.04967844 3.90746784  15 5.21972132 0.958802223  15 4.62159061 1.82634306  15 3.88091111 2.5758636  15 3.02052855 3.18424606  15 2.0669806 3.632725  15 1.04967844 3.90746784  15.5 5.21972132 0.958802223  15.5 4.62159061 1.82634306  15.5 3.88091111 2.5758636  15.5 3.02052855 3.18424606  15.5 2.0669806 3.632725  15.5 1.04967844 3.90746784  16 5.21972132 0.958802223  16 4.62159061 1.82634306  16 3.88091111 2.5758636  16 3.02052855 3.18424606  16 2.0669806 3.632725  16 1.04967844 3.90746784  16.5 5.21972132 0.958802223  16.5 4.62159061 1.82634306  16.5 3.88091111 2.5758636  16.5 3.02052855 3.18424606  16.5 2.0669806 3.632725  16.5 1.04967844 3.90746784  17 5.21972132 0.958802223  17 4.62159061 1.82634306  17 3.88091111 2.5758636  17 3.02052855 3.18424606  17 2.0669806 3.632725  17 1.04967844 3.90746784  17.5 5.21972132 0.958802223  17.5 4.62159061 1.82634306  17.5 3.88091111 2.5758636  17.5 3.02052855 3.18424606  17.
[...]
<PointData  Vectors="f_261141-0"> 
<DataArray  type="Float64"  Name="f_261141-0"  NumberOfComponents="3" format="ascii">0.0000000000000000e+00 0.0000000000000000e+00 0.0000000000000000e+00  0.0000000000000000e+00 0.0000000000000000e+00 7.9299236951353835e-01  0.0000000000000000e+00 1.0725007371856197e+00 0.0000000000000000e+00  9.9906861515609240e+00 0.0000000000000000e+00 -3.6796921720997022e-02  9.9607432144559276e+00 1.0388215962389395e+00 -7.3986325138743203e-01  9.8939454109786329e+00 0.0000000000000000e+00 -7.1349120053454784e-01  0.0000000000000000e+00 0.0000000000000000e+00 1.5615069859656971e-01  0.0000000000000000e+00 0.0000000000000000e+00 3.9033974020730444e-01  0.0000000000000000e+00 0.0000000000000000e+00 6.4314516599007021e-01  0.0000000000000000e+00 2.2573770342744420e-01 7.5864039864440247e-01  0.0000000000000000e+00 4.0652579475466610e-01 6.9067120435891827e-01  0.0000000000000000e+00 5.9866375349637968e-01 6.2870754266136386e-01  0.0000000000000000e+00 7.8563640386576195e-01 5.1460504329310197e-01  0.0000000000000000e+00 9.3962450262940267e-01 3.2919594454822521e-01  0.0000000000000000e+00 1.0398063268768856e+00 1.7148232204268565e-01  0.0000000000000000e+00 9.2123599948263990e-01 0.0000000000000000e+00  0.0000000000000000e+00 7.5595323783143731e-01 0.0000000000000000e+00  0.0000000000000000e+00 5.6348380997659409e-01 0.0000000000000000e+00  0.0000000000000000e+00 3.6690412644339038e-01 0.0000000000000000e+00  0.0000000000000000e+00 1.8440038947767307e-01 0.0000000000000000e+00  9.9759718280010443e-02 0.0000000000000000e+00 7.9656781860562120e-01  1.9923311730172105e-01 0.0000000000000000e+00 7.9449430935635801e-01  3.0016965630840925e-01 0.0000000000000000e+00 7.9385278655964886e-01  4.0226215078042160e-01 0.0000000000000000e+00 7.9522633718884872e-01  4.9756019010742775e-01 0.0000000000000000e+00 8.0337460460846222e-01  6.0560766898298357e-01 0.0000000000000000e+00 7.9663263142008423e-01  7.0322510856555231e-01 0.0000000000000000e+00 7.9615440222180334e-01  8.0730007265429249e-01 0.0000000000000000e+00 7.8754415433486569e-01  9.0997889557532685e-01 0.0000000000000000e+00 7.8214418697827648e-01  1.0083160134880862e+00 0.0000000000000000e+00 7.8190693525331501e-01  1.1074691946283635e+00 0.0000000000000000e+00 7.8078810601948645e-01  1.2067116978203367e+00 0.0000000000000000e+00 7.9023795089120519e-01  1.3077719116968543e+00 0.0000000000000000e+00 7.9406449015382219e-01  1.4204678804735720e+00 0.0000000000000000e+00 7.7702671666280343e-01  1.5215712854094432e+00 0.0000000000000000e+00 7.7314497437723673e-01  1.6276166692481411e+00 0.0000000000000000e+00 7.6729044035057581e-01  1.7287463003885879e+00 0.0000000000000000e+00 7.6553255275736598e-01  1.8303119126581027e+00 0.0000000000000000e+00 7.5822777530404917e-01  1.9297723226021073e+00 0.0000000000000000e+00 7.5865721156092691e-01  2.0271021524501895e+00 0.0000000000000000e+00 7.6387955196058865e-01  2.1256176129849673e+00 0.0000000000000000e+00 7.7207871897508873e-01  2.2284703276521447e+00 0.0000000000000000e+00 7.6039687100693054e-01  2.3308175477925532e+00 0.0000000000000000e+00 7.5968344321712566e-01  2.4335300731732863e+00 0.0000000000000000e+00 7.5214973923095618e-01  2.5329265135479395e+00 0.0000000000000000e+00 7.5549212595523785e-01  2.6359698858140557e+00 0.0000000000000000e+00 7.4723066119757331e-01  2.7383755750420486e+00 0.0000000000000000e+00 7.3983645304257817e-01  2.8362863524178157e+00 0.0000000000000000e+00 7.4379837245766112e-01  2.9374527204811458e+00 0.0000000000000000e+00 7.3869009212457692e-01  3.0382587451237977e+00 0.0000000000000000e+00 7.2523836678717535e-01  3.1317281028459205e+00 0.0000000000000000e+00 7.3657943741440668e-01  3.2323770756027486e+00 0.0000000000000000e+00 7.2664201292381847e-01  3.3329646326172955e+00 0.0000000000000000e+00 7.1716645713573324e-01  3.4371661475140565e+00 0.0000000000000000e+00 7.0107789328197190e-01  3.5413263345981001e+00 0.0000000000000000e+00 6.9209080557046909e-01  3.6441190552784422e+00 0.0000000000000000e+00 6.9005499218446498e-01  3.7462169732929724e+00 0.0000000000000000e+00 6.8635964606059063e-01  3.8453658174834255e+00 0.0000000000000000e+00 6.8757742103444108e-01  3.9495362452528111e+00 0.0000000000000000e+00 6.7723111250970058e-01  4.0483041302539329e+00 0.0000000000000000e+00 6.7961180596391435e-01  4.1460564455201956e+00 0.0000000000000000e+00 6.7923006841943445e-01  4.2490135468356360e+00 0.0000000000000000e+00 6.7182117215093828e-01  4.3457446099073271e+00 0.0000000000000000e+00 6.6555035558961406e-01  4.4524472316054577e+00 0.0000000000000000e+00 6.4048784661775660e-01  4.5490738714983934e+00 0.0000000000000000e+00 6.3802942165912246e-01  4.6480605835457895e+00 0.0000000000000000e+00 6.3374164297382152e-01  4.7481108836673265e+00 0.0000000000000000e+00 6.3953057886243014e-01  4.8502854257298571e+00 0.0000000000000000e+00 6.3872053876672819e-01  4.9517768114307765e+00 0.0000000000000000e+00 6.3375272265781368e-01  5.0542912107249451e+00 0.0000000000000000e+00 6.2612698323278038e-01  5.1574168358644963e+00 0.0000000000000000e+00 6.1416140848712697e-01  5.2545562697914807e+00 0.0000000000000000e+00 6.2108802989249301e-01  5.3595578273477962e+00 0.0000000000000000e+00 6.0663285596398386e-01  5.4570108118394511e+00 0.0000000000000000e+00 6.1087297411516561e-01  5.5605156441562045e+00 0.0000000000000000e+00 5.9683751928801509e-01  5.6675574440633731e+00 0.0000000000000000e+00 5.8638005595550469e-01  5.7679820667002009e+00 0.0000000000000000e+00 5.7674987823311519e-01  5.8673037405913959e+00 0.0000000000000000e+00 5.7489381734158240e-01  5.9689659196029394e+00 0.0000000000000000e+00 5.7198890929672364e-01  6.0719767811548220e+00 0.0000000000000000e+00 5.5603777225086770e-01  6.1723721183704026e+00 0.0000000000000000e+00 5.3386095589273486e-01  6.2702278515137113e+00 0.0000000000000000e+00 5.3731259912752605e-01  6.3721119948374394e+00 0.0000000000000000e+00 5.2291003411210157e-01  6.4745942709174855e+00 0.0000000000000000e+00 5.1025756060369709e-01  6.5716456880284637e+00 0.0000000000000000e+00 5.1666612816560098e-01  6.6764723558815353e+00 0.0000000000000000e+00 5.1449002074316830e-01  6.7836794667162863e+00 0.0000000000000000e+00 5.0483270769298727e-01  6.8814029863027661e+00 0.0000000000000000e+00 4.9639659855876683e-01  6.9815311518132033e+00 0.0000000000000000e+00 4.8877169074837062e-01  7.0802685613448260e+00 0.0000000000000000e+00 4.7588115402838521e-01  7.1802766044126729e+00 0.0000000000000000e+00 4.6936663069223911e-01  7.2804146244663110e+00 0.0000000000000000e+00 4.6339480342556494e-01  7.3849024170480462e+00 0.0000000000000000e+00 4.3857219305569822e-01  7.4863065696271933e+00 0.0000000000000000e+00 4.2899424777746015e-01  7.5928282966962657e+00 0.0000000000000000e+00 4.1667260958550384e-01  7.6926469131257056e+00 0.0000000000000000e+00 4.0943929909794147e-01  7.7958674795698428e+00 0.0000000000000000e+00 3.9995718825619292e-01  7.8939667482214064e+00 0.0000000000000000e+00 3.8848073711749803e-01  7.9984130920308942e+00 0.0000000000000000e+00 3.6782729833965244e-01  8.0967802179153772e+00 0.0000000000000000e+00 3.5714272913050077e-01  8.1979770890593269e+00 0.0000000000000000e+00 3.4924199955746471e-01  8.3062712661194116e+00 0.0000000000000000e+00 3.3174786832850772e-01  8.4114526840141490e+00 0.0000000000000000e+00 3.1745438604066717e-01  8.5107553539758900e+00 0.0000000000000000e+00 3.1166630153717811e-01  8.6161539130748341e+00 0.0000000000000000e+00 2.9066715613843280e-01  8.7148397393241925e+00 0.0000000000000000e+00 2.8144239614016880e-01  8.8194042948451585e+00 0.0000000000000000e+00 2.6592067258598773e-01  8.9222394575744346e+00 0.0000000000000000e+00 2.4239011580386288e-01  9.0261671165016910e+00 0.0000000000000000e+00 2.0974317822210964e-01  9.1247185492733127e+00 0.0000000000000000e+00 1.8954962281070145e-01  9.2265896748972231e+00 0.0000000000000000e+00 1.5858858444534027e-01  9.3248533169250400e+00 0.0000000000000000e+00 1.3226036183708967e-01  9.4198539775120960e+00 0.0000000000000000e+00 1.0759191829085009e-01  9.5103576964235277e+00 0.0000000000000000e+00 8.0882877539280307e-02  9.5969940704644099e+00 0.0000000000000000e+00 5.2094746112431985e-02  9.6814556096288680e+00 0.0000000000000000e+00 2.7800389014667744e-02  9.7637421928258039e+00 0.0000000000000000e+00 1.0770652600962494e-02  9.8441067980022847e+00 0.0000000000000000e+00 -1.2339036588424107e-02  9.9199506138761535e+00 0.0000000000000000e+00 -3.1923757020166775e-02  9.9917133498223869e+00 1.5789288665137102e-01 -5.1136179147450112e-02  1.0011244185633512e+01 3.1997497741190117e-01 -8.1498170744648171e-02  1.0021274372963889e+01 4.9332720411968489e-01 -1.3365124831439418e-01  1.0032209089411340e+01 6.7737408594059700e-01 -2.0686447207942493e-01  1.0059137839521023e+01 8.6787980543702492e-01 -3.6218532514716101e-01  1.0008687701800005e+01 9.7566427079412454e-01 -5.6186314643843971e-01  9.8726811128432050e+00 1.0433060750148919e+00 -7.2001115998486676e-01  9.7803066178467013e+00 1.0488824206305685e+00 -7.0063756572299385e-01  9.6873592709348504e+00 1.0542117320842770e+00 -6.8007328714546200e-01  9.5897244313057151e+00 1.0551266674732283e+00 -6.5323599905622232e-01  9.4966375246821944e+00 1.0581153631460058e+00 -6.3641491048390864e-01  9.4025393109862101e+00 1.0682271024978565e+00 -6.2762526069478330e-01  9.3066959710549924e+00 1.0653342632259373e+00 -6.1615503674180083e-01  9.2061671021472193e+00 1.0687762355510022e+00 -5.9894532137774026e-01  9.1070172440845756e+00 1.0751356317418119e+00 -5.8294124583119034e-01  9.0051338232979337e+00 1.0776179193490942e+00 -5.6438417720742795e-01  8.9036338261047590e+00 1.0800617575987816e+00 -5.4912398242856009e-01  8.8027501792778526e+00 1.0899946530813176e+00 -5.3740768771750957e-01  8.7029319817991873e+00 1.0915951420450802e+00 -5.1690095378159895e-01  8.6021891267798569e+00 1.0890908431561883e+00 -5.0212932918705833e-01  8.5029924773651313e+00 1.0920231505263540e+00 -5.0237411798109444e-01  8.3964552956916325e+00 1.0837822091297635e+00 -4.8898082262490039e-01  8.3021150838745612e+00 1.0872290563709464e+00 -4.6461864157610472e-01  8.2040080629133634e+00 1.0992493534283467e+00 -4.4399656482756550e-01  8.1082335592675552e+00 1.1050975931989178e+00 -4.2934749925104476e-01  8.0101141173023720e+00 1.1090040838954247e+00 -4.1059100840402524e-01  7.9106724591560695e+00 1.1141055719454807e+00 -3.9032155531020901e-01  7.8093425367357341e+00 1.1096456385760853e+00 -3.6666244415547450e-01  7.7078868931249023e+00 1.1166421256573325e+00 -3.5661440002021022e-01  7.6075430212516721e+00 1.1018054673592894e+00 -3.4474105331779092e-01  7.5097139669411863e+00 1.1029082664286605e+00 -3.4223119935089852e-01  7.4106547856274574e+00 1.1008975146004836e+00 -3.3515401932689393e-01  7.3091119018967223e+00 1.1002846105381427e+00 -3.2799313974324401e-01  7.2086484798927950e+00 1.0998860771429320e+00 -3.2456751217662061e-01  7.1094749902442516e+00 1.1007432799434114e+00 -3.1892228121188004e-01  7.0102104376869878e+00 1.0970793612790557e+00 -3.0811212478424871e-01  6.9089646938795202e+00 1.0959191771515169e+00 -3.0038520991722312e-01  6.8086227848699528e+00 1.1000098083614411e+00 -2.9574774050546171e-01  6.7078436008821640e+00 1.0933569175000311e+00 -2.9050233579297979e-01  6.6065187388922144e+00 1.0874961346546772e+00 -2.8715752983155690e-01  6.5066311388798521e+00 1.0855801486783245e+00 -2.8060180121565809e-01  6.4068587625747027e+00 1.0832475232312220e+00 -2.7516386759571021e-01  6.3062875463403643e+00 1.0856566951573590e+00 -2.6998822647119575e-01  6.2038362980357045e+00 1.0886735110392523e+00 -2.6203750378989810e-01  6.1024880045938561e+00 1.0923939867069543e+00 -2.6022912161812195e-01  6.0027907849357796e+00 1.0819791321554735e+00 -2.5641500242835713e-01  5.9014560353317931e+00 1.0779057310007383e+00 -2.5275839278458423e-01  5.8018647671358385e+00 1.0815368573590090e+00 -2.4917588924057740e-01  5.7037182982637837e+00 1.0717117314723292e+00 -2.3578139693603756e-01  5.6043388465364679e+00 1.0735335406538224e+00 -2.2542706483639577e-01  5.5067710303281556e+00 1.0814387595740320e+00 -2.1987577433668409e-01  5.4088483521392661e+00 1.0804520683188232e+00 -2.0686674272740027e-01  5.3124360288014980e+00 1.0843579211834053e+00 -1.9770365503320275e-01  5.2129625722735522e+00 1.0886997616617258e+00 -1.9049355470900503e-01  5.1116753759407043e+00 1.0837930248875614e+00 -1.7601949296448294e-01  5.0085495003601572e+00 1.0907526358788733e+00 -1.6377941824888162e-01  4.9072993618671559e+00 1.0911234306962152e+00 -1.5912717160452020e-01  4.8053583958609849e+00 1.0981753629567199e+00 -1.6164770948491955e-01  4.7044951794253036e+00 1.0915062224612189e+00 -1.5467054393560850e-01  4.6011699904471346e+00 1.0936222077893449e+00 -1.5758626890920580e-01  4.5035641427166730e+00 1.0927092650763295e+00 -1.5510479181542330e-01  4.4015769462304570e+00 1.0917732171982730e+00 -1.4364429785329549e-01  4.2999090312270125e+00 1.0883429441495507e+00 -1.2733862909035831e-01  4.2002576588022977e+00 1.0972625624789922e+00 -1.2324025384315028e-01  4.1012925414539945e+00 1.0975609249769804e+00 -1.1798020496546298e-01  4.0036979047615855e+00 1.0981217350864416e+00 -1.1560759600391993e-01  3.9011693931600799e+00 1.1040774667683155e+00 -1.1520632513723188e-01  3.8006440877696241e+00 1.0941890568836659e+00 -1.1180047652078554e-01  3.6970217812487767e+00 1.0927972457581094e+00 -1.0570215514646157e-01  3.5980338112746044e+00 1.0973641390175151e+00 -1.0940376498834473e-01  3.4970534857592761e+00 1.0903482528861896e+00 -1.0058070135357017e-01  3.3954445752258660e+00 1.0757386028145457e+00 -8.7866472027481393e-02  3.2968475994410862e+00 1.0806989812100358e+00 -9.3917810488987341e-02  3.1969405657297174e+00 1.0789718179144747e+00 -9.5387220101917053e-02  3.0991999139468511e+00 1.0764241598368940e+00 -9.2314817304379765e-02  3.0011448192314552e+00 1.0783877259287082e+00 -8.7601859862979511e-02  2.9001735183482547e+00 1.0800823752933673e+00 -7.7636255341114693e-02  2.7987710998611171e+00 1.0836557492331014e+00 -7.0783105608602612e-02  2.6991670046408771e+00 1.0894308482693347e+00 -6.9007372975277398e-02  2.5982194675278203e+00 1.0870515953073536e+00 -6.1149344926961960e-02  2.4973547120688946e+00 1.0886203233142309e+00 -5.5879650243418177e-02  2.3972216611154482e+00 1.0831486493791875e+00 -4.7658738227718954e-02  2.2976943027813808e+00 1.0874626586651059e+00 -4.4997091874147431e-02  2.2008696748753493e+00 1.0928016229151245e+00 -4.2325184293669604e-02  2.0984878007448295e+00 1.0950257149174898e+00 -3.8136268788987016e-02  1.9961161615628449e+00 1.0865138919660289e+00 -2.4294482953462027e-02  1.8973377924521213e+00 1.0968511474461626e+00 -2.3749018971130222e-02  1.7957028087406224e+00 1.0982916324594894e+00 -1.8249297202665472e-02  1.6964243436784876e+00 1.0854879828038839e+00 -8.3207762514654771e-03  1.5966012283067168e+00 1.0891206016322490e+00 -9.7944166735879183e-03  1.4994251111144801e+00 1.0898230447982356e+00 -1.1607964620045173e-02  1.4011375605522958e+00 1.0909637023795449e+00 -6.8775106874162505e-03  1.3008690000226208e+00 1.0875342302249293e+00 4.7169780820526200e-03  1.2000347560464786e+00 1.0978447817726749e+00 3.0764321126740390e-03  1.0991537439937384e+00 1.0989260886356531e+00 2.7989440860536658e-03  9.9811175276033814e-01 1.1007796174987168e+00 5.7684765045500578e-03  8.9727326844187749e-01 1.0965112789330087e+00 3.3492964082636459e-03  7.9784883077041946e-01 1.0953594217184788e+00 4.2098028050515683e-03  6.9664771632724687e-01 1.0989928653910697e+00 3.3884966442889247e-03  5.9346771068559956e-01 1.0954984754358630e+00 1.2385420104731410e-02  4.9491978278209070e-01 1.0911508137604995e+00 1.4574752948659524e-02  3.9532251295443910e-01 1.0956589638453493e+00 6.8312965292647750e-03  2.9392147359815607e-01 1.0833359344685458e+00 4.9498527764454386e-03  1.9535374817519016e-01 1.0777503523337040e+00 0.0000000000000000e+00  9.6255922471975355e-02 1.0700396150026505e+00 0.0000000000000000e+00  9.9514732261931584e+00 8.6286433333753676e-01 -7.2879079548067316e-01  9.9390430425835010e+00 6.8301269296348843e-01 -7.2557477955078187e-01  9.9278576702971240e+00 5.1350452732006735e-01 -7.2579725048001775e-01  9.9202199587836279e+00 3.3688976691487876e-01 -7.1324929686408223e-01  9.9019127996788487e+00 1.5634742100337309e-01 -7.2177103130270415e-01  9.8103195564089987e+00 0.0000000000000000e+00 -7.0785736713280711e-01  9.7284243946581874e+00 0.0000000000000000e+00 -6.9624082568220391e-01  9.6416766385345678e+00 0.0000000000000000e+00 -6.8749742931472568e-01  9.5523995552631380e+00 0.0000000000000000e+00 -6.7799607469718504e-01  9.4599863432970146e+00 0.0000000000000000e+00 -6.5943504655290164e-01  9.3629586925606656e+00 0.0000000000000000e+00 -6.4623960492527921e-01  9.2684950832483342e+00 0.0000000000000000e+00 -6.3467563338616217e-01  9.1669740353481046e+00 0.0000000000000000e+00 -6.1645292185254086e-01  9.0680143298511844e+00 0.0000000000000000e+00 -5.9676263917760075e-01  8.9706654020845509e+00 0.0000000000000000e+00 -5.9121900786752069e-01  8.8718312045973811e+00 0.0000000000000000e+00 -5.7027638454463414e-01  8.7773709072144186e+00 0.0000000000000000e+00 -5.5465905354452116e-01  8.6816932963240010e+00 0.0000000000000000e+00 -5.2868860772250992e-01  8.5791922445086151e+00 0.0000000000000000e+00 -5.0420694588619175e-01  8.4874534750346236e+00 0.0000000000000000e+00 -5.0107847089033053e-01  8.3927551837276955e+00 0.0000000000000000e+00 -4.9350993574784463e-01  8.2956685279668303e+00 0.0000000000000000e+00 -4.7379676539102633e-01  8.1977663182913378e+00 0.0000000000000000e+00 -4.5843125296981796e-01  8.0991589653939524e+00 0.0000000000000000e+00 -4.6115007994777951e-01  8.0013643710648701e+00 0.0000000000000000e+00 -4.4599374985344548e-01  7.9013588793665752e+00 0.0000000000000000e+00 -4.3126026404062434e-01  7.8032132225813884e+00 0.0000000000000000e+00 -4.1249416909466147e-01  7.7045490523191082e+00 0.0000000000000000e+00 -3.9678214500746123e-01  7.6047257900030916e+00 0.0000000000000000e+00 -3.9175504324125443e-01  7.5068483591300366e+00 0.0000000000000000e+00 -3.7575718159286148e-01  7.4063171137104549e+00 0.0000000000000000e+00 -3.5695419947227230e-01  7.3040719752541916e+00 0.0000000000000000e+00 -3.4755172235267145e-01  7.2032153115684032e+00 0.0000000000000000e+00 -3.4374216497719379e-01  7.1039662516195534e+00 0.0000000000000000e+00 -3.3975478020674194e-01  7.0024484704591625e+00 0.0000000000000000e+00 -3.2969269843771748e-01  6.9078041040737173e+00 0.0000000000000000e+00 -3.2558602843944978e-01  6.8109818653263643e+00 0.0000000000000000e+00 -3.1712223483787966e-01  6.7114064602902808e+00 0.0000000000000000e+00 -2.9708345785910245e-01  6.6094785664791376e+00 0.0000000000000000e+00 -2.9332169220048920e-01  6.5053329166859255e+00 0.0000000000000000e+00 -2.8480273444446358e-01  6.4060685593618230e+00 0.0000000000000000e+00 -2.8262160304665934e-01  6.3053415645620294e+00 0.0000000000000000e+00 -2.7392993674730426e-01  6.2011749318145295e+00 0.0000000000000000e+00 -2.5899220363113923e-01  6.1003724910415897e+00 0.0000000000000000e+00 -2.4776965781111715e-01  6.0037523941344153e+00 0.0000000000000000e+00 -2.3048174494242082e-01  5.9073441896267287e+00 0.0000000000000000e+00 -2.2776716593885091e-01  5.8110745546380311e+00 0.0000000000000000e+00 -2.1488055027606368e-01  5.7090335716327587e+00 0.0000000000000000e+00 -2.0523425886249236e-01  5.6157379738300861e+00 0.0000000000000000e+00 -2.1294789445008314e-01  5.5172463742766515e+00 0.0000000000000000e+00 -2.1040289571412082e-01  5.4145629486114721e+00 0.0000000000000000e+00 -1.9269743514998205e-01  5.3129071279736895e+00 0.0000000000000000e+00 -1.9036806495914907e-01  5.2140169184199143e+00 0.0000000000000000e+00 -1.8350915317690122e-01  5.1064234964082917e+00 0.0000000000000000e+00 -1.7838914940576323e-01  5.0079985070229798e+00 0.0000000000000000e+00 -1.7558971406832463e-01  4.9090172380765997e+00 0.0000000000000000e+00 -1.8437270991152524e-01  4.8076638444590198e+00 0.0000000000000000e+00 -1.7108257199629209e-01  4.7087782542816470e+00 0.0000000000000000e+00 -1.7646847