<?xml version="1.0"?>
<VTKFile type="UnstructuredGrid"  version="0.1"  >
<UnstructuredGrid>
<Piece  NumberOfPoints="3069" NumberOfCells="12882">
<Points>
<DataArray  type="Float64"  NumberOfComponents="3"  format="ascii">0 0 0  0 0 4  0 5.65685415 0  50 0 4  50 5.65685415 0  50 0 0  0 0 1  0 0 2  0 0 3  0 1.04967844 3.90746784  0 2.0669806 3.632725  0 3.02052855 3.18424606  0 3.88091111 2.5758636  0 4.62159061 1.82634306  0 5.21972132 0.958802283  0 4.71404505 0  0 3.77123618 0  0 2.82842708 0  0 1.88561809 0  0 0.942809045 0  0.5 0 4  1 0 4  1.5 0 4  2 0 4  2.5 0 4  3 0 4  3.5 0 4  4 0 4  4.5 0 4  5 0 4  5.5 0 4  6 0 4  6.5 0 4  7 0 4  7.5 0 4  8 0 4  8.5 0 4  9 0 4  9.5 0 4  10 0 4  10.5 0 4  11 0 4  11.5 0 4  12 0 4  12.5 0 4  13 0 4  13.5 0 4  14 0 4  14.5 0 4  15 0 4  15.5 0 4  16 0 4  16.5 0 4  17 0 4  17.5 0 4  18 0 4  18.5 0 4  19 0 4  19.5 0 4  20 0 4  20.5 0 4  21 0 4  21.5 0 4  22 0 4  22.5 0 4  23 0 4  23.5 0 4  24 0 4  24.5 0 4  25 0 4  25.5 0 4  26 0 4  26.5 0 4  27 0 4  27.5 0 4  28 0 4  28.5 0 4  29 0 4  29.5 0 4  30 0 4  30.5 0 4  31 0 4  31.5 0 4  32 0 4  32.5 0 4  33 0 4  33.5 0 4  34 0 4  34.5 0 4  35 0 4  35.5 0 4  36 0 4  36.5 0 4  37 0 4  37.5 0 4  38 0 4  38.5 0 4  39 0 4  39.5 0 4  40 0 4  40.5 0 4  41 0 4  41.5 0 4  42 0 4  42.5 0 4  43 0 4  43.5 0 4  44 0 4  44.5 0 4  45 0 4  45.5 0 4  46 0 4  46.5 0 4  47 0 4  47.5 0 4  48 0 4  48.5 0 4  49 0 4  49.5 0 4  50 1.04967844 3.90746784  50 2.0669806 3.632725  50 3.02052855 3.18424606  50 3.88091111 2.5758636  50 4.62159061 1.82634306  50 5.21972132 0.958802283  49.5 5.65685415 0  49 5.65685415 0  48.5 5.65685415 0  48 5.65685415 0  47.5 5.65685415 0  47 5.65685415 0  46.5 5.65685415 0  46 5.65685415 0  45.5 5.65685415 0  45 5.65685415 0  44.5 5.65685415 0  44 5.65685415 0  43.5 5.65685415 0  43 5.65685415 0  42.5 5.65685415 0  42 5.65685415 0  41.5 5.65685415 0  41 5.65685415 0  40.5 5.65685415 0  40 5.65685415 0  39.5 5.65685415 0  39 5.65685415 0  38.5 5.65685415 0  38 5.65685415 0  37.5 5.65685415 0  37 5.65685415 0  36.5 5.65685415 0  36 5.65685415 0  35.5 5.65685415 0  35 5.65685415 0  34.5 5.65685415 0  34 5.65685415 0  33.5 5.65685415 0  33 5.65685415 0  32.5 5.65685415 0  32 5.65685415 0  31.5 5.65685415 0  31 5.65685415 0  30.5 5.65685415 0  30 5.65685415 0  29.5 5.65685415 0  29 5.65685415 0  28.5 5.65685415 0  28 5.65685415 0  27.5 5.65685415 0  27 5.65685415 0  26.5 5.65685415 0  26 5.65685415 0  25.5 5.65685415 0  25 5.65685415 0  24.5 5.65685415 0  24 5.65685415 0  23.5 5.65685415 0  23 5.65685415 0  22.5 5.65685415 0  22 5.65685415 0  21.5 5.65685415 0  21 5.65685415 0  20.5 5.65685415 0  20 5.65685415 0  19.5 5.65685415 0  19 5.65685415 0  18.5 5.65685415 0  18 5.65685415 0  17.5 5.65685415 0  17 5.65685415 0  16.5 5.65685415 0  16 5.65685415 0  15.5 5.65685415 0  15 5.65685415 0  14.5 5.65685415 0  14 5.65685415 0  13.5 5.65685415 0  13 5.65685415 0  12.5 5.65685415 0  12 5.65685415 0  11.5 5.65685415 0  11 5.65685415 0  10.5 5.65685415 0  10 5.65685415 0  9.5 5.65685415 0  9 5.65685415 0  8.5 5.65685415 0  8 5.65685415 0  7.5 5.65685415 0  7 5.65685415 0  6.5 5.65685415 0  6 5.65685415 0  5.5 5.65685415 0  5 5.65685415 0  4.5 5.65685415 0  4 5.65685415 0  3.5 5.65685415 0  3 5.65685415 0  2.5 5.65685415 0  2 5.65685415 0  1.5 5.65685415 0  1 5.65685415 0  0.5 5.65685415 0  50 4.71404505 0  50 3.77123618 0  50 2.82842708 0  50 1.88561809 0  50 0.942809045 0  49.5 0 0  49 0 0  48.5 0 0  48 0 0  47.5 0 0  47 0 0  46.5 0 0  46 0 0  45.5 0 0  45 0 0  44.5 0 0  44 0 0  43.5 0 0  43 0 0  42.5 0 0  42 0 0  41.5 0 0  41 0 0  40.5 0 0  40 0 0  39.5 0 0  39 0 0  38.5 0 0  38 0 0  37.5 0 0  37 0 0  36.5 0 0  36 0 0  35.5 0 0  35 0 0  34.5 0 0  34 0 0  33.5 0 0  33 0 0  32.5 0 0  32 0 0  31.5 0 0  31 0 0  30.5 0 0  30 0 0  29.5 0 0  29 0 0  28.5 0 0  28 0 0  27.5 0 0  27 0 0  26.5 0 0  26 0 0  25.5 0 0  25 0 0  24.5 0 0  24 0 0  23.5 0 0  23 0 0  22.5 0 0  22 0 0  21.5 0 0  21 0 0  20.5 0 0  20 0 0  19.5 0 0  19 0 0  18.5 0 0  18 0 0  17.5 0 0  17 0 0  16.5 0 0  16 0 0  15.5 0 0  15 0 0  14.5 0 0  14 0 0  13.5 0 0  13 0 0  12.5 0 0  12 0 0  11.5 0 0  11 0 0  10.5 0 0  10 0 0  9.5 0 0  9 0 0  8.5 0 0  8 0 0  7.5 0 0  7 0 0  6.5 0 0  6 0 0  5.5 0 0  5 0 0  4.5 0 0  4 0 0  3.5 0 0  3 0 0  2.5 0 0  2 0 0  1.5 0 0  1 0 0  0.5 0 0  50 0 1  50 0 2  50 0 3  0 2.33524275 0.893602192  0 2.87561393 1.93323028  0 4.2367816 0.876864135  0 2.00050235 2.65534091  0 0.981494486 2.34323239  0 3.78543234 1.61830366  0 3.30545568 0.887000024  0 0.812916458 1.58408713  0 1.71948838 1.71268857  0 1.28267908 0.8650629520000001  0 1.21973121 3.10775328  0.5 5.21972132 0.958802223  0.5 4.62159061 1.82634306  0.5 3.88091111 2.5758636  0.5 3.02052855 3.18424606  0.5 2.0669806 3.632725  0.5 1.04967844 3.90746784  1 5.21972132 0.958802223  1 4.62159061 1.82634306  1 3.88091111 2.5758636  1 3.02052855 3.18424606  1 2.0669806 3.632725  1 1.04967844 3.90746784  1.5 5.21972132 0.958802223  1.5 4.62159061 1.82634306  1.5 3.88091111 2.5758636  1.5 3.02052855 3.18424606  1.5 2.0669806 3.632725  1.5 1.04967844 3.90746784  2 5.21972132 0.958802223  2 4.62159061 1.82634306  2 3.88091111 2.5758636  2 3.02052855 3.18424606  2 2.0669806 3.632725  2 1.04967844 3.90746784  2.5 5.21972132 0.958802223  2.5 4.62159061 1.82634306  2.5 3.88091111 2.5758636  2.5 3.02052855 3.18424606  2.5 2.0669806 3.632725  2.5 1.04967844 3.90746784  3 5.21972132 0.958802223  3 4.62159061 1.82634306  3 3.88091111 2.5758636  3 3.02052855 3.18424606  3 2.0669806 3.632725  3 1.04967844 3.90746784  3.5 5.21972132 0.958802223  3.5 4.62159061 1.82634306  3.5 3.88091111 2.5758636  3.5 3.02052855 3.18424606  3.5 2.0669806 3.632725  3.5 1.04967844 3.90746784  4 5.21972132 0.958802223  4 4.62159061 1.82634306  4 3.88091111 2.5758636  4 3.02052855 3.18424606  4 2.0669806 3.632725  4 1.04967844 3.90746784  4.5 5.21972132 0.958802223  4.5 4.62159061 1.82634306  4.5 3.88091111 2.5758636  4.5 3.02052855 3.18424606  4.5 2.0669806 3.632725  4.5 1.04967844 3.90746784  5 5.21972132 0.958802223  5 4.62159061 1.82634306  5 3.88091111 2.5758636  5 3.02052855 3.18424606  5 2.0669806 3.632725  5 1.04967844 3.90746784  5.5 5.21972132 0.958802223  5.5 4.62159061 1.82634306  5.5 3.88091111 2.5758636  5.5 3.02052855 3.18424606  5.5 2.0669806 3.632725  5.5 1.04967844 3.90746784  6 5.21972132 0.958802223  6 4.62159061 1.82634306  6 3.88091111 2.5758636  6 3.02052855 3.18424606  6 2.0669806 3.632725  6 1.04967844 3.90746784  6.5 5.21972132 0.958802223  6.5 4.62159061 1.82634306  6.5 3.88091111 2.5758636  6.5 3.02052855 3.18424606  6.5 2.0669806 3.632725  6.5 1.04967844 3.90746784  7 5.21972132 0.958802223  7 4.62159061 1.82634306  7 3.88091111 2.5758636  7 3.02052855 3.18424606  7 2.0669806 3.632725  7 1.04967844 3.90746784  7.5 5.21972132 0.958802223  7.5 4.62159061 1.82634306  7.5 3.88091111 2.5758636  7.5 3.02052855 3.18424606  7.5 2.0669806 3.632725  7.5 1.04967844 3.90746784  8 5.21972132 0.958802223  8 4.62159061 1.82634306  8 3.88091111 2.5758636  8 3.02052855 3.18424606  8 2.0669806 3.632725  8 1.04967844 3.90746784  8.5 5.21972132 0.958802223  8.5 4.62159061 1.82634306  8.5 3.88091111 2.5758636  8.5 3.02052855 3.18424606  8.5 2.0669806 3.632725  8.5 1.04967844 3.90746784  9 5.21972132 0.958802223  9 4.62159061 1.82634306  9 3.88091111 2.5758636  9 3.02052855 3.18424606  9 2.0669806 3.632725  9 1.04967844 3.90746784  9.5 5.21972132 0.958802223  9.5 4.62159061 1.82634306  9.5 3.88091111 2.5758636  9.5 3.02052855 3.18424606  9.5 2.0669806 3.632725  9.5 1.04967844 3.90746784  10 5.21972132 0.958802223  10 4.62159061 1.82634306  10 3.88091111 2.5758636  10 3.02052855 3.18424606  10 2.0669806 3.632725  10 1.04967844 3.90746784  10.5 5.21972132 0.958802223  10.5 4.62159061 1.82634306  10.5 3.88091111 2.5758636  10.5 3.02052855 3.18424606  10.5 2.0669806 3.632725  10.5 1.04967844 3.90746784  11 5.21972132 0.958802223  11 4.62159061 1.82634306  11 3.88091111 2.5758636  11 3.02052855 3.18424606  11 2.0669806 3.632725  11 1.04967844 3.90746784  11.5 5.21972132 0.958802223  11.5 4.62159061 1.82634306  11.5 3.88091111 2.5758636  11.5 3.02052855 3.18424606  11.5 2.0669806 3.632725  11.5 1.04967844 3.90746784  12 5.21972132 0.958802223  12 4.62159061 1.82634306  12 3.88091111 2.5758636  12 3.02052855 3.18424606  12 2.0669806 3.632725  12 1.04967844 3.90746784  12.5 5.21972132 0.958802223  12.5 4.62159061 1.82634306  12.5 3.88091111 2.5758636  12.5 3.02052855 3.18424606  12.5 2.0669806 3.632725  12.5 1.04967844 3.90746784  13 5.21972132 0.958802223  13 4.62159061 1.82634306  13 3.88091111 2.5758636  13 3.02052855 3.18424606  13 2.0669806 3.632725  13 1.04967844 3.90746784  13.5 5.21972132 0.958802223  13.5 4.62159061 1.82634306  13.5 3.88091111 2.5758636  13.5 3.02052855 3.18424606  13.5 2.0669806 3.632725  13.5 1.04967844 3.90746784  14 5.21972132 0.958802223  14 4.62159061 1.82634306  14 3.88091111 2.5758636  14 3.02052855 3.18424606  14 2.0669806 3.632725  14 1.04967844 3.90746784  14.5 5.21972132 0.958802223  14.5 4.62159061 1.82634306  14.5 3.88091111 2.5758636  14.5 3.02052855 3.18424606  14.5 2.0669806 3.632725  14.5 1.04967844 3.90746784  15 5.21972132 0.958802223  15 4.62159061 1.82634306  15 3.88091111 2.5758636  15 3.02052855 3.18424606  15 2.0669806 3.632725  15 1.04967844 3.90746784  15.5 5.21972132 0.958802223  15.5 4.62159061 1.82634306  15.5 3.88091111 2.5758636  15.5 3.02052855 3.18424606  15.5 2.0669806 3.632725  15.5 1.04967844 3.90746784  16 5.21972132 0.958802223  16 4.62159061 1.82634306  16 3.88091111 2.5758636  16 3.02052855 3.18424606  16 2.0669806 3.632725  16 1.04967844 3.90746784  16.5 5.21972132 0.958802223  16.5 4.62159061 1.82634306  16.5 3.88091111 2.5758636  16.5 3.02052855 3.18424606  16.5 2.0669806 3.632725  16.5 1.04967844 3.90746784  17 5.21972132 0.958802223  17 4.62159061 1.82634306  17 3.88091111 2.5758636  17 3.02052855 3.18424606  17 2.0669806 3.632725  17 1.04967844 3.90746784  17.5 5.21972132 0.958802223  17.5 4.62159061 1.82634306  17.5 3.88091111 2.5758636  17.5 3.02052855 3.18424606  17.
[...]
<PointData  Vectors="f_261141-0"> 
<DataArray  type="Float64"  Name="f_261141-0"  NumberOfComponents="3" format="ascii">0.0000000000000000e+00 0.0000000000000000e+00 0.0000000000000000e+00  0.0000000000000000e+00 0.0000000000000000e+00 7.5323629426007288e-01  0.0000000000000000e+00 1.0589211454599743e+00 0.0000000000000000e+00  9.5820153144299525e+00 0.0000000000000000e+00 1.1465297688023959e+00  9.7968209844305836e+00 1.0030829242531112e+00 5.2605364220191453e-01  9.6977361562567399e+00 0.0000000000000000e+00 5.2129237899366743e-01  0.0000000000000000e+00 0.0000000000000000e+00 1.5711585644793491e-01  0.0000000000000000e+00 0.0000000000000000e+00 3.7625446211588798e-01  0.0000000000000000e+00 0.0000000000000000e+00 6.0278651329071731e-01  0.0000000000000000e+00 2.0620652914485599e-01 7.2250082637465851e-01  0.0000000000000000e+00 3.8205434775859409e-01 6.6861853394203141e-01  0.0000000000000000e+00 5.6844363339409509e-01 6.1617633644955050e-01  0.0000000000000000e+00 7.5400534919730411e-01 5.0957108417325370e-01  0.0000000000000000e+00 9.1530089871482900e-01 3.3075069757069037e-01  0.0000000000000000e+00 1.0247010395541842e+00 1.7355394090781270e-01  0.0000000000000000e+00 9.0660992264661000e-01 0.0000000000000000e+00  0.0000000000000000e+00 7.3891620798136659e-01 0.0000000000000000e+00  0.0000000000000000e+00 5.4091273025563869e-01 0.0000000000000000e+00  0.0000000000000000e+00 3.4682001830552417e-01 0.0000000000000000e+00  0.0000000000000000e+00 1.7405352035997421e-01 0.0000000000000000e+00  9.6730198304625536e-02 0.0000000000000000e+00 7.5695641699815930e-01  1.9162221457989420e-01 0.0000000000000000e+00 7.5429457782219456e-01  2.8817919932547059e-01 0.0000000000000000e+00 7.5563626693096719e-01  3.8631584394257368e-01 0.0000000000000000e+00 7.5781984631007682e-01  4.7902354019791155e-01 0.0000000000000000e+00 7.6416551276456501e-01  5.8246815630299720e-01 0.0000000000000000e+00 7.5935891739046690e-01  6.7646953568704049e-01 0.0000000000000000e+00 7.6144271805319086e-01  7.7597670129616969e-01 0.0000000000000000e+00 7.5448063426715795e-01  8.7421658170084138e-01 0.0000000000000000e+00 7.5393761171931351e-01  9.6856587551992490e-01 0.0000000000000000e+00 7.5687850302031856e-01  1.0636478491215131e+00 0.0000000000000000e+00 7.5966712055454866e-01  1.1594056500538534e+00 0.0000000000000000e+00 7.6773069489809243e-01  1.2564882014816163e+00 0.0000000000000000e+00 7.7498993206112321e-01  1.3653556898934145e+00 0.0000000000000000e+00 7.6310037617664217e-01  1.4627459605111810e+00 0.0000000000000000e+00 7.6415136115738613e-01  1.5640098289314710e+00 0.0000000000000000e+00 7.6055875449092525e-01  1.6611394334938510e+00 0.0000000000000000e+00 7.6097502664234395e-01  1.7581448201925065e+00 0.0000000000000000e+00 7.5923322711704899e-01  1.8540869908870492e+00 0.0000000000000000e+00 7.6280670602606415e-01  1.9477325931735785e+00 0.0000000000000000e+00 7.7150487889453656e-01  2.0420879468878201e+00 0.0000000000000000e+00 7.8320338817025947e-01  2.1423244856173516e+00 0.0000000000000000e+00 7.7828309059185885e-01  2.2409925508372139e+00 0.0000000000000000e+00 7.8171794889755475e-01  2.3396676922360644e+00 0.0000000000000000e+00 7.7826476497163832e-01  2.4349186250956567e+00 0.0000000000000000e+00 7.8736496753510810e-01  2.5332025413353967e+00 0.0000000000000000e+00 7.8624895184482679e-01  2.6317825908594878e+00 0.0000000000000000e+00 7.8573084277960514e-01  2.7262381194810912e+00 0.0000000000000000e+00 7.9593256206409502e-01  2.8229890991033062e+00 0.0000000000000000e+00 7.9649101190600569e-01  2.9201394843556461e+00 0.0000000000000000e+00 7.9217151597085855e-01  3.0111228352631327e+00 0.0000000000000000e+00 8.0784507118730775e-01  3.1094131390374127e+00 0.0000000000000000e+00 8.0622104993430754e-01  3.2052618255488787e+00 0.0000000000000000e+00 8.0754473506100188e-01  3.3056155671053999e+00 0.0000000000000000e+00 7.9938087813249736e-01  3.4051897763535148e+00 0.0000000000000000e+00 7.9827005155936959e-01  3.5040257908219541e+00 0.0000000000000000e+00 8.0341774027559010e-01  3.6010231677919435e+00 0.0000000000000000e+00 8.0853576899311874e-01  3.6956049035382907e+00 0.0000000000000000e+00 8.1843145919906890e-01  3.7956987729288278e+00 0.0000000000000000e+00 8.1694265232953645e-01  3.8902634225514565e+00 0.0000000000000000e+00 8.2857695291580924e-01  3.9853117483335572e+00 0.0000000000000000e+00 8.3816512816911992e-01  4.0843826521656030e+00 0.0000000000000000e+00 8.3930922835341926e-01  4.1766574639531449e+00 0.0000000000000000e+00 8.4381987056462993e-01  4.2791307938218441e+00 0.0000000000000000e+00 8.3065865550129681e-01  4.3731206696180527e+00 0.0000000000000000e+00 8.3717123263198834e-01  4.4687852209989991e+00 0.0000000000000000e+00 8.4491812089249740e-01  4.5643287458935733e+00 0.0000000000000000e+00 8.6073558327877142e-01  4.6616143908815832e+00 0.0000000000000000e+00 8.7117974841093815e-01  4.7593476342871508e+00 0.0000000000000000e+00 8.7772246005851751e-01  4.8579601958641678e+00 0.0000000000000000e+00 8.8120886900418205e-01  4.9574941643530233e+00 0.0000000000000000e+00 8.8300679428085715e-01  5.0500690584312373e+00 0.0000000000000000e+00 9.0148752005601962e-01  5.1507517854629867e+00 0.0000000000000000e+00 9.0048802469180222e-01  5.2436711506263682e+00 0.0000000000000000e+00 9.1881387365663358e-01  5.3432482428986612e+00 0.0000000000000000e+00 9.1712655594338977e-01  5.4457214914216960e+00 0.0000000000000000e+00 9.1861439924116339e-01  5.5429830205552442e+00 0.0000000000000000e+00 9.2314305326966406e-01  5.6389940311272468e+00 0.0000000000000000e+00 9.3582118130988279e-01  5.7353800473208869e+00 0.0000000000000000e+00 9.4901201480862285e-01  5.8335806286651444e+00 0.0000000000000000e+00 9.4924775251446236e-01  5.9310190240723584e+00 0.0000000000000000e+00 9.4129301773900076e-01  6.0251451154589599e+00 0.0000000000000000e+00 9.5925896659315979e-01  6.1231869871462923e+00 0.0000000000000000e+00 9.5896151236042482e-01  6.2225853835702098e+00 0.0000000000000000e+00 9.6156832533370928e-01  6.3155114460356065e+00 0.0000000000000000e+00 9.8307550375645081e-01  6.4153316125348541e+00 0.0000000000000000e+00 9.9600531155956185e-01  6.5185353136860407e+00 0.0000000000000000e+00 1.0035933363162550e+00  6.6120415647749100e+00 0.0000000000000000e+00 1.0121717782112525e+00  6.7073402364950265e+00 0.0000000000000000e+00 1.0218241613868762e+00  6.8030525787582672e+00 0.0000000000000000e+00 1.0259596283407504e+00  6.8984787607102982e+00 0.0000000000000000e+00 1.0367965584685757e+00  6.9944659348145706e+00 0.0000000000000000e+00 1.0498666087702857e+00  7.0944359512045185e+00 0.0000000000000000e+00 1.0455234701892924e+00  7.1914763250731708e+00 0.0000000000000000e+00 1.0552526170273984e+00  7.2947006443151361e+00 0.0000000000000000e+00 1.0593963563703503e+00  7.3900638266145080e+00 0.0000000000000000e+00 1.0731765600692891e+00  7.4890937574220438e+00 0.0000000000000000e+00 1.0833431699335696e+00  7.5831940384640308e+00 0.0000000000000000e+00 1.0916815125314310e+00  7.6836006171553262e+00 0.0000000000000000e+00 1.0925212601387224e+00  7.7780694832875339e+00 0.0000000000000000e+00 1.1021130795592988e+00  7.8759687322623462e+00 0.0000000000000000e+00 1.1146207161215471e+00  7.9791788187166617e+00 0.0000000000000000e+00 1.1163696623207597e+00  8.0806441311293362e+00 0.0000000000000000e+00 1.1236226727950287e+00  8.1757915906140237e+00 0.0000000000000000e+00 1.1395120472717306e+00  8.2767483294114150e+00 0.0000000000000000e+00 1.1394907939848926e+00  8.3711142237189833e+00 0.0000000000000000e+00 1.1523557366418284e+00  8.4712224581251032e+00 0.0000000000000000e+00 1.1590617306097779e+00  8.5697809604232766e+00 0.0000000000000000e+00 1.1583763588822507e+00  8.6706455622978673e+00 0.0000000000000000e+00 1.1496707903390875e+00  8.7654257669341202e+00 0.0000000000000000e+00 1.1538291920442367e+00  8.8636855779336017e+00 0.0000000000000000e+00 1.1454024592554972e+00  8.9583287740877839e+00 0.0000000000000000e+00 1.1421564898665599e+00  9.0502199894127244e+00 0.0000000000000000e+00 1.1386936619385188e+00  9.1377714166347701e+00 0.0000000000000000e+00 1.1342249280377970e+00  9.2207459210441982e+00 0.0000000000000000e+00 1.1271519525920510e+00  9.3003319963936839e+00 0.0000000000000000e+00 1.1228973844413164e+00  9.3770414238479898e+00 0.0000000000000000e+00 1.1261324238727617e+00  9.4511678433217092e+00 0.0000000000000000e+00 1.1238228127049550e+00  9.5191174961690823e+00 0.0000000000000000e+00 1.1271594931330713e+00  9.5910441007086682e+00 1.3703411861644291e-01 1.1330044642554873e+00  9.6261538662195445e+00 2.8347360429391594e-01 1.1114611361630442e+00  9.6605093271764328e+00 4.4085477624775365e-01 1.0730282782106648e+00  9.7017757286657549e+00 6.1321589090033868e-01 1.0180788517806683e+00  9.7810296151354770e+00 8.0360656646772632e-01 8.8779669834934505e-01  9.7913424932452795e+00 9.2530223225386909e-01 6.9937062115823978e-01  9.7099271143660761e+00 1.0113471931793341e+00 5.1872832890110510e-01  9.6180675885905611e+00 1.0213648061612060e+00 5.0947598653597803e-01  9.5253234590060369e+00 1.0298476228582980e+00 5.0187303599408362e-01  9.4272851626468555e+00 1.0330815480856468e+00 5.0072630961337072e-01  9.3343956873721030e+00 1.0381995016599452e+00 4.9050268933256946e-01  9.2402189219056705e+00 1.0507287043562836e+00 4.7173377761654989e-01  9.1440091304443509e+00 1.0486922623818704e+00 4.5592538922356485e-01  9.0426570541424436e+00 1.0525689544485919e+00 4.4724136588200109e-01  8.9431575390323967e+00 1.0598574340600253e+00 4.3757281859032937e-01  8.8403541464803030e+00 1.0626751421175218e+00 4.3100504558671354e-01  8.7388756398989411e+00 1.0644794059624336e+00 4.2073761653951264e-01  8.6383271860917681e+00 1.0738859053399030e+00 4.0802624836451840e-01  8.5389887419478185e+00 1.0753588838071471e+00 4.0529643717333474e-01  8.4389882308641919e+00 1.0728146274527697e+00 3.9701937686806210e-01  8.3411892769479721e+00 1.0742303966103464e+00 3.7426286401135922e-01  8.2364070279413681e+00 1.0655826700325295e+00 3.6545651919759642e-01  8.1433859328446232e+00 1.0689933960226503e+00 3.6940101715880569e-01  8.0465968555539451e+00 1.0813010922055362e+00 3.6963710385847792e-01  7.9525034711543228e+00 1.0877355278494065e+00 3.6347897151871017e-01  7.8558710675481240e+00 1.0914835108540173e+00 3.6122054741414883e-01  7.7574774721082100e+00 1.0964263134057977e+00 3.6069167664678919e-01  7.6570170534767810e+00 1.0913054023183972e+00 3.6377978323674043e-01  7.5570340682058808e+00 1.0981454090019493e+00 3.5337485722206458e-01  7.4580831581430269e+00 1.0828469701081525e+00 3.4557630779585868e-01  7.3621916931964808e+00 1.0834989550340650e+00 3.2833220734355456e-01  7.2649604018435037e+00 1.0804111779080043e+00 3.1639128114331661e-01  7.1652161959796699e+00 1.0798108569718503e+00 3.0468845072058887e-01  7.0667245370666336e+00 1.0797085505914723e+00 2.8930396347930537e-01  6.9697190157491216e+00 1.0801559367599802e+00 2.7728743763974439e-01  6.8725797587458590e+00 1.0766511313984355e+00 2.7007020137876614e-01  6.7731181358393391e+00 1.0750744080652710e+00 2.6038632711532972e-01  6.6747639206612872e+00 1.0783644717528242e+00 2.4808712771336111e-01  6.5760445163493193e+00 1.0716168270599136e+00 2.3634176375872262e-01  6.4769301963889392e+00 1.0661828339903558e+00 2.2237676598133999e-01  6.3791968436299813e+00 1.0647433360114236e+00 2.1282917529693771e-01  6.2816108806652595e+00 1.0628860675285807e+00 2.0186631667497371e-01  6.1827741826929445e+00 1.0664678256024582e+00 1.9074488890643843e-01  6.0819824038863626e+00 1.0685210625384682e+00 1.8343053335315418e-01  5.9825198315562824e+00 1.0715830257724697e+00 1.7009758475890363e-01  5.8849263751937215e+00 1.0614138499914640e+00 1.5818056965572935e-01  5.7853905712901579e+00 1.0570777691911077e+00 1.4673115445553686e-01  5.6876732100056486e+00 1.0600364337347887e+00 1.3647831435529523e-01  5.5912777252536090e+00 1.0500043775880767e+00 1.3619334112388584e-01  5.4939744250036506e+00 1.0514898218850255e+00 1.3259474273339528e-01  5.3989362069608662e+00 1.0599845952275970e+00 1.2448039521585007e-01  5.3030791241935447e+00 1.0597887626266107e+00 1.2444019200699229e-01  5.2084177601985191e+00 1.0653203730256118e+00 1.2060218627782261e-01  5.1107089780385975e+00 1.0686906337775979e+00 1.1550044425493966e-01  5.0108483532230919e+00 1.0632347716156068e+00 1.1699467020676323e-01  4.9091701254519551e+00 1.0702862874849925e+00 1.1611125559453754e-01  4.8095898283519309e+00 1.0695757679519950e+00 1.0926420959358822e-01  4.7098321372301708e+00 1.0775927047430622e+00 9.4016472770108786e-02  4.6112375048385008e+00 1.0709689481444897e+00 9.0494479467526395e-02  4.5091570439505153e+00 1.0729845424918991e+00 7.4200970327890123e-02  4.4136631236296351e+00 1.0717411354114930e+00 6.5598263809465249e-02  4.3132307938207308e+00 1.0703311759846916e+00 6.7517152035250494e-02  4.2131518226672213e+00 1.0676370048998549e+00 7.4242926634923836e-02  4.1156517400172863e+00 1.0766458328167028e+00 6.8226132294685868e-02  4.0184591275456834e+00 1.0774698508826723e+00 6.4340097258417064e-02  3.9230089775552326e+00 1.0777268246349545e+00 5.7869249388730851e-02  3.8224302778455961e+00 1.0836435596836951e+00 4.9454694921155007e-02  3.7239352348819152e+00 1.0734921811522009e+00 4.4258131470678537e-02  3.6220955714502905e+00 1.0726662422510103e+00 4.2100316378249375e-02  3.5257194283716990e+00 1.0773241844975259e+00 2.9841871500510438e-02  3.4265783085680628e+00 1.0707520797529351e+00 3.1641786125819228e-02  3.3268169024812511e+00 1.0562541632790270e+00 3.7487183491537006e-02  3.2304512591286065e+00 1.0626551083078730e+00 2.3561849939578203e-02  3.1327437789714003e+00 1.0614222479834992e+00 1.4493977762130340e-02  3.0372704313626238e+00 1.0576990775497830e+00 1.0806858865830830e-02  2.9411518334019542e+00 1.0602583359009876e+00 8.0982308857938425e-03  2.8420020188122592e+00 1.0616075771902642e+00 1.1251055154135887e-02  2.7425374594966621e+00 1.0654832821248970e+00 1.0750006884283679e-02  2.6449284898226550e+00 1.0708047504070564e+00 5.9297723577660180e-03  2.5456558868195511e+00 1.0674614212573650e+00 7.8025747785308245e-03  2.4466467391186506e+00 1.0690506526640435e+00 6.6491071990714525e-03  2.3482949297988549e+00 1.0637558496055497e+00 8.9332549954702165e-03  2.2504917504277184e+00 1.0690914149833333e+00 6.1829281549043401e-03  2.1561350667969115e+00 1.0745640353393864e+00 3.7155900458368772e-03  2.0557088145827422e+00 1.0773641759783101e+00 3.3045540574277799e-03  1.9551654295337717e+00 1.0682993306908748e+00 1.2985409910921753e-02  1.8586739989311467e+00 1.0788030309839882e+00 8.7806690471529305e-03  1.7590296080922085e+00 1.0794110432567448e+00 1.0423816228113296e-02  1.6618721503592606e+00 1.0664288520174932e+00 1.6102513346617092e-02  1.5641058969439667e+00 1.0709493486935493e+00 1.0018998287726536e-02  1.4691474121522266e+00 1.0715688150001064e+00 4.6607053754853843e-03  1.3729253804278641e+00 1.0726883182483813e+00 6.3346569136206793e-03  1.2744102771870822e+00 1.0687024216470922e+00 1.5648279047447176e-02  1.1754096826943050e+00 1.0797629986393606e+00 1.1058587889222930e-02  1.0763783815323245e+00 1.0802078630757110e+00 8.3456046108268348e-03  9.7709828649542196e-01 1.0829725923597313e+00 8.9069110239156247e-03  8.7839641040503647e-01 1.0784728790691671e+00 3.8594643226203804e-03  7.8131746746123254e-01 1.0779157786378852e+00 3.5602070826836725e-03  6.8235876060071476e-01 1.0822679671403905e+00 1.8323542404709676e-03  5.8121107366151270e-01 1.0793279289582902e+00 1.0775237720316574e-02  4.8491591282206015e-01 1.0753358613087780e+00 1.3521325047814494e-02  3.8753917159192541e-01 1.0805400712590292e+00 6.4093975081909709e-03  2.8821192055262085e-01 1.0687827921777608e+00 4.7599797761786310e-03  1.9206430156355489e-01 1.0640238933508765e+00 0.0000000000000000e+00  9.4731909681800452e-02 1.0563934289623260e+00 0.0000000000000000e+00  9.7800035719301306e+00 8.2679884042519391e-01 5.2789723302384972e-01  9.7612886796483842e+00 6.5264163791723573e-01 5.2357614933780117e-01  9.7432788595896955e+00 4.8717084496319302e-01 5.1642527901597779e-01  9.7323973764840446e+00 3.1982230728200478e-01 5.2818018383432608e-01  9.7091852225649404e+00 1.4757893109335385e-01 5.1507597157519558e-01  9.6142132116239019e+00 0.0000000000000000e+00 4.9930432568729194e-01  9.5335446606674559e+00 0.0000000000000000e+00 4.8615764956733548e-01  9.4482867637599153e+00 0.0000000000000000e+00 4.6869970005356587e-01  9.3606781151658591e+00 0.0000000000000000e+00 4.5400433959253400e-01  9.2689256236634066e+00 0.0000000000000000e+00 4.5129605498883868e-01  9.1744642380604127e+00 0.0000000000000000e+00 4.4103954236169984e-01  9.0815095067586356e+00 0.0000000000000000e+00 4.3132062317824110e-01  8.9830220909560161e+00 0.0000000000000000e+00 4.2748122429173024e-01  8.8875172056207479e+00 0.0000000000000000e+00 4.2252343196935849e-01  8.7925273830589461e+00 0.0000000000000000e+00 4.0963981187290782e-01  8.6964445281719378e+00 0.0000000000000000e+00 4.0884271290371837e-01  8.6038673224581981e+00 0.0000000000000000e+00 4.0163718494387646e-01  8.5099632248703525e+00 0.0000000000000000e+00 4.0415614928180088e-01  8.4099333203070081e+00 0.0000000000000000e+00 4.0581232696164116e-01  8.3201709908713610e+00 0.0000000000000000e+00 3.9057765763202218e-01  8.2277054882023872e+00 0.0000000000000000e+00 3.7749097408587945e-01  8.1322823389487091e+00 0.0000000000000000e+00 3.7472741826976352e-01  8.0371882638913075e+00 0.0000000000000000e+00 3.6715885913056551e-01  7.9415506547235699e+00 0.0000000000000000e+00 3.4699544541796140e-01  7.8458219124028314e+00 0.0000000000000000e+00 3.4055670664856330e-01  7.7479540863124345e+00 0.0000000000000000e+00 3.3395596712440945e-01  7.6498241823260846e+00 0.0000000000000000e+00 3.3609297372938918e-01  7.5529014188804098e+00 0.0000000000000000e+00 3.3049604626886209e-01  7.4553101117020768e+00 0.0000000000000000e+00 3.1845046650746373e-01  7.3586474826802446e+00 0.0000000000000000e+00 3.1472079565642169e-01  7.2598420053024038e+00 0.0000000000000000e+00 3.1351384835050605e-01  7.1603687698778336e+00 0.0000000000000000e+00 3.0206989497495612e-01  7.0613538492003176e+00 0.0000000000000000e+00 2.9019920613570988e-01  6.9639485184287837e+00 0.0000000000000000e+00 2.7551581672868236e-01  6.8640102135949759e+00 0.0000000000000000e+00 2.6962534262938759e-01  6.7708348822503694e+00 0.0000000000000000e+00 2.5693587826969388e-01  6.6761672926144833e+00 0.0000000000000000e+00 2.4836271549020364e-01  6.5793140025002543e+00 0.0000000000000000e+00 2.4641967288965122e-01  6.4796864037807547e+00 0.0000000000000000e+00 2.3490899469923748e-01  6.3778815101630100e+00 0.0000000000000000e+00 2.2515543154015766e-01  6.2799413754371649e+00 0.0000000000000000e+00 2.1410013491831664e-01  6.1809632118798685e+00 0.0000000000000000e+00 2.0606078907047340e-01  6.0797570344620526e+00 0.0000000000000000e+00 2.0488313363110611e-01  5.9804622281469086e+00 0.0000000000000000e+00 2.0274321374869628e-01  5.8853062606379547e+00 0.0000000000000000e+00 2.0283104472561206e-01  5.7898281438734518e+00 0.0000000000000000e+00 1.9326091455718872e-01  5.6948636387353737e+00 0.0000000000000000e+00 1.8987851367380909e-01  5.5947684862175802e+00 0.0000000000000000e+00 1.8386981941929600e-01  5.5025214856284039e+00 0.0000000000000000e+00 1.6569199887713545e-01  5.4058047912907208e+00 0.0000000000000000e+00 1.5467518943890410e-01  5.3052603069452857e+00 0.0000000000000000e+00 1.5680844587922740e-01  5.2054647043257125e+00 0.0000000000000000e+00 1.4800130217218510e-01  5.1093716593554612e+00 0.0000000000000000e+00 1.4091026345741911e-01  5.0043282398547753e+00 0.0000000000000000e+00 1.3502026282096707e-01  4.9076514418789223e+00 0.0000000000000000e+00 1.2505697866842308e-01  4.8107960772307656e+00 0.0000000000000000e+00 1.0595159420747707e-01  4.7120968072479403e+00 0.0000000000000000e+00 1.0496348215921138e-01  4.6149225448684010e+00 0.0000000000000000e+00 9.2147903985915144e-02  4.5139470048374397e+00 0.0000000000000000e+00 9.7124465000720195e-02  4.4094261193959685e+00 0.0000000000000000e+00 9.2388116900143272e-02  