<?xml version="1.0"?>
<VTKFile type="UnstructuredGrid"  version="0.1"  >
<UnstructuredGrid>
<Piece  NumberOfPoints="3069" NumberOfCells="12882">
<Points>
<DataArray  type="Float64"  NumberOfComponents="3"  format="ascii">0 0 0  0 0 4  0 5.65685415 0  50 0 4  50 5.65685415 0  50 0 0  0 0 1  0 0 2  0 0 3  0 1.04967844 3.90746784  0 2.0669806 3.632725  0 3.02052855 3.18424606  0 3.88091111 2.5758636  0 4.62159061 1.82634306  0 5.21972132 0.958802283  0 4.71404505 0  0 3.77123618 0  0 2.82842708 0  0 1.88561809 0  0 0.942809045 0  0.5 0 4  1 0 4  1.5 0 4  2 0 4  2.5 0 4  3 0 4  3.5 0 4  4 0 4  4.5 0 4  5 0 4  5.5 0 4  6 0 4  6.5 0 4  7 0 4  7.5 0 4  8 0 4  8.5 0 4  9 0 4  9.5 0 4  10 0 4  10.5 0 4  11 0 4  11.5 0 4  12 0 4  12.5 0 4  13 0 4  13.5 0 4  14 0 4  14.5 0 4  15 0 4  15.5 0 4  16 0 4  16.5 0 4  17 0 4  17.5 0 4  18 0 4  18.5 0 4  19 0 4  19.5 0 4  20 0 4  20.5 0 4  21 0 4  21.5 0 4  22 0 4  22.5 0 4  23 0 4  23.5 0 4  24 0 4  24.5 0 4  25 0 4  25.5 0 4  26 0 4  26.5 0 4  27 0 4  27.5 0 4  28 0 4  28.5 0 4  29 0 4  29.5 0 4  30 0 4  30.5 0 4  31 0 4  31.5 0 4  32 0 4  32.5 0 4  33 0 4  33.5 0 4  34 0 4  34.5 0 4  35 0 4  35.5 0 4  36 0 4  36.5 0 4  37 0 4  37.5 0 4  38 0 4  38.5 0 4  39 0 4  39.5 0 4  40 0 4  40.5 0 4  41 0 4  41.5 0 4  42 0 4  42.5 0 4  43 0 4  43.5 0 4  44 0 4  44.5 0 4  45 0 4  45.5 0 4  46 0 4  46.5 0 4  47 0 4  47.5 0 4  48 0 4  48.5 0 4  49 0 4  49.5 0 4  50 1.04967844 3.90746784  50 2.0669806 3.632725  50 3.02052855 3.18424606  50 3.88091111 2.5758636  50 4.62159061 1.82634306  50 5.21972132 0.958802283  49.5 5.65685415 0  49 5.65685415 0  48.5 5.65685415 0  48 5.65685415 0  47.5 5.65685415 0  47 5.65685415 0  46.5 5.65685415 0  46 5.65685415 0  45.5 5.65685415 0  45 5.65685415 0  44.5 5.65685415 0  44 5.65685415 0  43.5 5.65685415 0  43 5.65685415 0  42.5 5.65685415 0  42 5.65685415 0  41.5 5.65685415 0  41 5.65685415 0  40.5 5.65685415 0  40 5.65685415 0  39.5 5.65685415 0  39 5.65685415 0  38.5 5.65685415 0  38 5.65685415 0  37.5 5.65685415 0  37 5.65685415 0  36.5 5.65685415 0  36 5.65685415 0  35.5 5.65685415 0  35 5.65685415 0  34.5 5.65685415 0  34 5.65685415 0  33.5 5.65685415 0  33 5.65685415 0  32.5 5.65685415 0  32 5.65685415 0  31.5 5.65685415 0  31 5.65685415 0  30.5 5.65685415 0  30 5.65685415 0  29.5 5.65685415 0  29 5.65685415 0  28.5 5.65685415 0  28 5.65685415 0  27.5 5.65685415 0  27 5.65685415 0  26.5 5.65685415 0  26 5.65685415 0  25.5 5.65685415 0  25 5.65685415 0  24.5 5.65685415 0  24 5.65685415 0  23.5 5.65685415 0  23 5.65685415 0  22.5 5.65685415 0  22 5.65685415 0  21.5 5.65685415 0  21 5.65685415 0  20.5 5.65685415 0  20 5.65685415 0  19.5 5.65685415 0  19 5.65685415 0  18.5 5.65685415 0  18 5.65685415 0  17.5 5.65685415 0  17 5.65685415 0  16.5 5.65685415 0  16 5.65685415 0  15.5 5.65685415 0  15 5.65685415 0  14.5 5.65685415 0  14 5.65685415 0  13.5 5.65685415 0  13 5.65685415 0  12.5 5.65685415 0  12 5.65685415 0  11.5 5.65685415 0  11 5.65685415 0  10.5 5.65685415 0  10 5.65685415 0  9.5 5.65685415 0  9 5.65685415 0  8.5 5.65685415 0  8 5.65685415 0  7.5 5.65685415 0  7 5.65685415 0  6.5 5.65685415 0  6 5.65685415 0  5.5 5.65685415 0  5 5.65685415 0  4.5 5.65685415 0  4 5.65685415 0  3.5 5.65685415 0  3 5.65685415 0  2.5 5.65685415 0  2 5.65685415 0  1.5 5.65685415 0  1 5.65685415 0  0.5 5.65685415 0  50 4.71404505 0  50 3.77123618 0  50 2.82842708 0  50 1.88561809 0  50 0.942809045 0  49.5 0 0  49 0 0  48.5 0 0  48 0 0  47.5 0 0  47 0 0  46.5 0 0  46 0 0  45.5 0 0  45 0 0  44.5 0 0  44 0 0  43.5 0 0  43 0 0  42.5 0 0  42 0 0  41.5 0 0  41 0 0  40.5 0 0  40 0 0  39.5 0 0  39 0 0  38.5 0 0  38 0 0  37.5 0 0  37 0 0  36.5 0 0  36 0 0  35.5 0 0  35 0 0  34.5 0 0  34 0 0  33.5 0 0  33 0 0  32.5 0 0  32 0 0  31.5 0 0  31 0 0  30.5 0 0  30 0 0  29.5 0 0  29 0 0  28.5 0 0  28 0 0  27.5 0 0  27 0 0  26.5 0 0  26 0 0  25.5 0 0  25 0 0  24.5 0 0  24 0 0  23.5 0 0  23 0 0  22.5 0 0  22 0 0  21.5 0 0  21 0 0  20.5 0 0  20 0 0  19.5 0 0  19 0 0  18.5 0 0  18 0 0  17.5 0 0  17 0 0  16.5 0 0  16 0 0  15.5 0 0  15 0 0  14.5 0 0  14 0 0  13.5 0 0  13 0 0  12.5 0 0  12 0 0  11.5 0 0  11 0 0  10.5 0 0  10 0 0  9.5 0 0  9 0 0  8.5 0 0  8 0 0  7.5 0 0  7 0 0  6.5 0 0  6 0 0  5.5 0 0  5 0 0  4.5 0 0  4 0 0  3.5 0 0  3 0 0  2.5 0 0  2 0 0  1.5 0 0  1 0 0  0.5 0 0  50 0 1  50 0 2  50 0 3  0 2.33524275 0.893602192  0 2.87561393 1.93323028  0 4.2367816 0.876864135  0 2.00050235 2.65534091  0 0.981494486 2.34323239  0 3.78543234 1.61830366  0 3.30545568 0.887000024  0 0.812916458 1.58408713  0 1.71948838 1.71268857  0 1.28267908 0.8650629520000001  0 1.21973121 3.10775328  0.5 5.21972132 0.958802223  0.5 4.62159061 1.82634306  0.5 3.88091111 2.5758636  0.5 3.02052855 3.18424606  0.5 2.0669806 3.632725  0.5 1.04967844 3.90746784  1 5.21972132 0.958802223  1 4.62159061 1.82634306  1 3.88091111 2.5758636  1 3.02052855 3.18424606  1 2.0669806 3.632725  1 1.04967844 3.90746784  1.5 5.21972132 0.958802223  1.5 4.62159061 1.82634306  1.5 3.88091111 2.5758636  1.5 3.02052855 3.18424606  1.5 2.0669806 3.632725  1.5 1.04967844 3.90746784  2 5.21972132 0.958802223  2 4.62159061 1.82634306  2 3.88091111 2.5758636  2 3.02052855 3.18424606  2 2.0669806 3.632725  2 1.04967844 3.90746784  2.5 5.21972132 0.958802223  2.5 4.62159061 1.82634306  2.5 3.88091111 2.5758636  2.5 3.02052855 3.18424606  2.5 2.0669806 3.632725  2.5 1.04967844 3.90746784  3 5.21972132 0.958802223  3 4.62159061 1.82634306  3 3.88091111 2.5758636  3 3.02052855 3.18424606  3 2.0669806 3.632725  3 1.04967844 3.90746784  3.5 5.21972132 0.958802223  3.5 4.62159061 1.82634306  3.5 3.88091111 2.5758636  3.5 3.02052855 3.18424606  3.5 2.0669806 3.632725  3.5 1.04967844 3.90746784  4 5.21972132 0.958802223  4 4.62159061 1.82634306  4 3.88091111 2.5758636  4 3.02052855 3.18424606  4 2.0669806 3.632725  4 1.04967844 3.90746784  4.5 5.21972132 0.958802223  4.5 4.62159061 1.82634306  4.5 3.88091111 2.5758636  4.5 3.02052855 3.18424606  4.5 2.0669806 3.632725  4.5 1.04967844 3.90746784  5 5.21972132 0.958802223  5 4.62159061 1.82634306  5 3.88091111 2.5758636  5 3.02052855 3.18424606  5 2.0669806 3.632725  5 1.04967844 3.90746784  5.5 5.21972132 0.958802223  5.5 4.62159061 1.82634306  5.5 3.88091111 2.5758636  5.5 3.02052855 3.18424606  5.5 2.0669806 3.632725  5.5 1.04967844 3.90746784  6 5.21972132 0.958802223  6 4.62159061 1.82634306  6 3.88091111 2.5758636  6 3.02052855 3.18424606  6 2.0669806 3.632725  6 1.04967844 3.90746784  6.5 5.21972132 0.958802223  6.5 4.62159061 1.82634306  6.5 3.88091111 2.5758636  6.5 3.02052855 3.18424606  6.5 2.0669806 3.632725  6.5 1.04967844 3.90746784  7 5.21972132 0.958802223  7 4.62159061 1.82634306  7 3.88091111 2.5758636  7 3.02052855 3.18424606  7 2.0669806 3.632725  7 1.04967844 3.90746784  7.5 5.21972132 0.958802223  7.5 4.62159061 1.82634306  7.5 3.88091111 2.5758636  7.5 3.02052855 3.18424606  7.5 2.0669806 3.632725  7.5 1.04967844 3.90746784  8 5.21972132 0.958802223  8 4.62159061 1.82634306  8 3.88091111 2.5758636  8 3.02052855 3.18424606  8 2.0669806 3.632725  8 1.04967844 3.90746784  8.5 5.21972132 0.958802223  8.5 4.62159061 1.82634306  8.5 3.88091111 2.5758636  8.5 3.02052855 3.18424606  8.5 2.0669806 3.632725  8.5 1.04967844 3.90746784  9 5.21972132 0.958802223  9 4.62159061 1.82634306  9 3.88091111 2.5758636  9 3.02052855 3.18424606  9 2.0669806 3.632725  9 1.04967844 3.90746784  9.5 5.21972132 0.958802223  9.5 4.62159061 1.82634306  9.5 3.88091111 2.5758636  9.5 3.02052855 3.18424606  9.5 2.0669806 3.632725  9.5 1.04967844 3.90746784  10 5.21972132 0.958802223  10 4.62159061 1.82634306  10 3.88091111 2.5758636  10 3.02052855 3.18424606  10 2.0669806 3.632725  10 1.04967844 3.90746784  10.5 5.21972132 0.958802223  10.5 4.62159061 1.82634306  10.5 3.88091111 2.5758636  10.5 3.02052855 3.18424606  10.5 2.0669806 3.632725  10.5 1.04967844 3.90746784  11 5.21972132 0.958802223  11 4.62159061 1.82634306  11 3.88091111 2.5758636  11 3.02052855 3.18424606  11 2.0669806 3.632725  11 1.04967844 3.90746784  11.5 5.21972132 0.958802223  11.5 4.62159061 1.82634306  11.5 3.88091111 2.5758636  11.5 3.02052855 3.18424606  11.5 2.0669806 3.632725  11.5 1.04967844 3.90746784  12 5.21972132 0.958802223  12 4.62159061 1.82634306  12 3.88091111 2.5758636  12 3.02052855 3.18424606  12 2.0669806 3.632725  12 1.04967844 3.90746784  12.5 5.21972132 0.958802223  12.5 4.62159061 1.82634306  12.5 3.88091111 2.5758636  12.5 3.02052855 3.18424606  12.5 2.0669806 3.632725  12.5 1.04967844 3.90746784  13 5.21972132 0.958802223  13 4.62159061 1.82634306  13 3.88091111 2.5758636  13 3.02052855 3.18424606  13 2.0669806 3.632725  13 1.04967844 3.90746784  13.5 5.21972132 0.958802223  13.5 4.62159061 1.82634306  13.5 3.88091111 2.5758636  13.5 3.02052855 3.18424606  13.5 2.0669806 3.632725  13.5 1.04967844 3.90746784  14 5.21972132 0.958802223  14 4.62159061 1.82634306  14 3.88091111 2.5758636  14 3.02052855 3.18424606  14 2.0669806 3.632725  14 1.04967844 3.90746784  14.5 5.21972132 0.958802223  14.5 4.62159061 1.82634306  14.5 3.88091111 2.5758636  14.5 3.02052855 3.18424606  14.5 2.0669806 3.632725  14.5 1.04967844 3.90746784  15 5.21972132 0.958802223  15 4.62159061 1.82634306  15 3.88091111 2.5758636  15 3.02052855 3.18424606  15 2.0669806 3.632725  15 1.04967844 3.90746784  15.5 5.21972132 0.958802223  15.5 4.62159061 1.82634306  15.5 3.88091111 2.5758636  15.5 3.02052855 3.18424606  15.5 2.0669806 3.632725  15.5 1.04967844 3.90746784  16 5.21972132 0.958802223  16 4.62159061 1.82634306  16 3.88091111 2.5758636  16 3.02052855 3.18424606  16 2.0669806 3.632725  16 1.04967844 3.90746784  16.5 5.21972132 0.958802223  16.5 4.62159061 1.82634306  16.5 3.88091111 2.5758636  16.5 3.02052855 3.18424606  16.5 2.0669806 3.632725  16.5 1.04967844 3.90746784  17 5.21972132 0.958802223  17 4.62159061 1.82634306  17 3.88091111 2.5758636  17 3.02052855 3.18424606  17 2.0669806 3.632725  17 1.04967844 3.90746784  17.5 5.21972132 0.958802223  17.5 4.62159061 1.82634306  17.5 3.88091111 2.5758636  17.5 3.02052855 3.18424606  17.
[...]
<PointData  Vectors="f_261141-0"> 
<DataArray  type="Float64"  Name="f_261141-0"  NumberOfComponents="3" format="ascii">0.0000000000000000e+00 0.0000000000000000e+00 0.0000000000000000e+00  0.0000000000000000e+00 0.0000000000000000e+00 7.4085212263947786e-01  0.0000000000000000e+00 1.0279757804981962e+00 0.0000000000000000e+00  9.3011118282960350e+00 0.0000000000000000e+00 2.5517394259300202e-01  9.0700637687741690e+00 1.0726119544326189e+00 -6.5615951977633269e-01  9.1322081017207068e+00 0.0000000000000000e+00 -5.9083721261556010e-01  0.0000000000000000e+00 0.0000000000000000e+00 1.7946095598378095e-01  0.0000000000000000e+00 0.0000000000000000e+00 3.6810223363866135e-01  0.0000000000000000e+00 0.0000000000000000e+00 5.5951440697174959e-01  0.0000000000000000e+00 1.9975468236714841e-01 7.2128884239977975e-01  0.0000000000000000e+00 3.8460123752651487e-01 6.6383790940833454e-01  0.0000000000000000e+00 5.5786083054054580e-01 5.7983985831119478e-01  0.0000000000000000e+00 7.1276945167927241e-01 4.6745831207521227e-01  0.0000000000000000e+00 8.4535111626566706e-01 3.2905065271867473e-01  0.0000000000000000e+00 9.5158770346499288e-01 1.7238858914687200e-01  0.0000000000000000e+00 8.5907791319157145e-01 0.0000000000000000e+00  0.0000000000000000e+00 6.8920215041664168e-01 0.0000000000000000e+00  0.0000000000000000e+00 5.1913031621587036e-01 0.0000000000000000e+00  0.0000000000000000e+00 3.4814452620610237e-01 0.0000000000000000e+00  0.0000000000000000e+00 1.7500721170314079e-01 0.0000000000000000e+00  9.1770002979657289e-02 0.0000000000000000e+00 7.4121583374760180e-01  1.8395953825345215e-01 0.0000000000000000e+00 7.4131531956322805e-01  2.7613135920998855e-01 0.0000000000000000e+00 7.4158335733784719e-01  3.6862225026261353e-01 0.0000000000000000e+00 7.4087606544189999e-01  4.5991618300653575e-01 0.0000000000000000e+00 7.4210705329480653e-01  5.5266877245515611e-01 0.0000000000000000e+00 7.4036107928605466e-01  6.4414896431712731e-01 0.0000000000000000e+00 7.3999767090369317e-01  7.3690592715587733e-01 0.0000000000000000e+00 7.3791051079898284e-01  8.2897983463907665e-01 0.0000000000000000e+00 7.3622096336995158e-01  9.2094406406380003e-01 0.0000000000000000e+00 7.3412312386363798e-01  1.0126400665729354e+00 0.0000000000000000e+00 7.3319240584304601e-01  1.1046828285274333e+00 0.0000000000000000e+00 7.3295139095385764e-01  1.1968209408798036e+00 0.0000000000000000e+00 7.3185321000615067e-01  1.2897361397765978e+00 0.0000000000000000e+00 7.2887143686794120e-01  1.3809940192379442e+00 0.0000000000000000e+00 7.2824911222054989e-01  1.4738375922892843e+00 0.0000000000000000e+00 7.2599305457644980e-01  1.5658660744516726e+00 0.0000000000000000e+00 7.2391695417312252e-01  1.6580144152772045e+00 0.0000000000000000e+00 7.2144453167711475e-01  1.7497584065107445e+00 0.0000000000000000e+00 7.2000216872260159e-01  1.8415796884502551e+00 0.0000000000000000e+00 7.1817162346535268e-01  1.9334694911328583e+00 0.0000000000000000e+00 7.1724426706816569e-01  2.0252633209707809e+00 0.0000000000000000e+00 7.1392889529192083e-01  2.1175391857343744e+00 0.0000000000000000e+00 7.1210759250710098e-01  2.2096961877015331e+00 0.0000000000000000e+00 7.0904239317488027e-01  2.3013084955895482e+00 0.0000000000000000e+00 7.0737802526967697e-01  2.3939341260645364e+00 0.0000000000000000e+00 7.0343764387286944e-01  2.4862255705153702e+00 0.0000000000000000e+00 6.9984864339997055e-01  2.5778341526372226e+00 0.0000000000000000e+00 6.9768172228693770e-01  2.6701432580990114e+00 0.0000000000000000e+00 6.9411039889723503e-01  2.7626901051801553e+00 0.0000000000000000e+00 6.8926793001324915e-01  2.8531727988607232e+00 0.0000000000000000e+00 6.8925106758028132e-01  2.9448047800718404e+00 0.0000000000000000e+00 6.8463655606536500e-01  3.0370752962169103e+00 0.0000000000000000e+00 6.8026967600382371e-01  3.1293799020016428e+00 0.0000000000000000e+00 6.7591242820648634e-01  3.2220351652320232e+00 0.0000000000000000e+00 6.7147636538632294e-01  3.3143347067567386e+00 0.0000000000000000e+00 6.6762364712502553e-01  3.4068417879678159e+00 0.0000000000000000e+00 6.6347995144416172e-01  3.4986218491051391e+00 0.0000000000000000e+00 6.6041760504358937e-01  3.5911401294000718e+00 0.0000000000000000e+00 6.5475463191795324e-01  3.6829932457079755e+00 0.0000000000000000e+00 6.5097044369458168e-01  3.7742165206143095e+00 0.0000000000000000e+00 6.4751005409863249e-01  3.8668641465816682e+00 0.0000000000000000e+00 6.4294864727944978e-01  3.9584033056852390e+00 0.0000000000000000e+00 6.3848932520542556e-01  4.0514524397695180e+00 0.0000000000000000e+00 6.3127490777980766e-01  4.1427448420013455e+00 0.0000000000000000e+00 6.2699593848038893e-01  4.2345890769013117e+00 0.0000000000000000e+00 6.2157933303824986e-01  4.3265195338301980e+00 0.0000000000000000e+00 6.1727094105632929e-01  4.4188828871200876e+00 0.0000000000000000e+00 6.1142071982892188e-01  4.5108627457823864e+00 0.0000000000000000e+00 6.0624673777402716e-01  4.6031995448961034e+00 0.0000000000000000e+00 6.0030421496905517e-01  4.6955289397796589e+00 0.0000000000000000e+00 5.9380914120096562e-01  4.7871450588638904e+00 0.0000000000000000e+00 5.8902429112317112e-01  4.8796486796276923e+00 0.0000000000000000e+00 5.8173753593169553e-01  4.9711727775127974e+00 0.0000000000000000e+00 5.7669922653002681e-01  5.0633259139817177e+00 0.0000000000000000e+00 5.7000873434135813e-01  5.1561448043513147e+00 0.0000000000000000e+00 5.6361385744328552e-01  5.2480663780253654e+00 0.0000000000000000e+00 5.5675530096931447e-01  5.3397336753032176e+00 0.0000000000000000e+00 5.5053056890319529e-01  5.4317154525492111e+00 0.0000000000000000e+00 5.4479687179724146e-01  5.5243186638438706e+00 0.0000000000000000e+00 5.3678073808244042e-01  5.6163727979543161e+00 0.0000000000000000e+00 5.2862366770056812e-01  5.7079840099153119e+00 0.0000000000000000e+00 5.2281259084402343e-01  5.8002430666310563e+00 0.0000000000000000e+00 5.1493823881594414e-01  5.8924175575172475e+00 0.0000000000000000e+00 5.0724790425697130e-01  5.9839681815787387e+00 0.0000000000000000e+00 5.0156309153677314e-01  6.0766287021301846e+00 0.0000000000000000e+00 4.9333991658301507e-01  6.1689064717396889e+00 0.0000000000000000e+00 4.8589317593203307e-01  6.2605024439141674e+00 0.0000000000000000e+00 4.7832410699365085e-01  6.3528993287908522e+00 0.0000000000000000e+00 4.6958918560311935e-01  6.4446363411166541e+00 0.0000000000000000e+00 4.6129596031336767e-01  6.5364567216546474e+00 0.0000000000000000e+00 4.5373130557661856e-01  6.6284271666856052e+00 0.0000000000000000e+00 4.4473969420736881e-01  6.7209693942474313e+00 0.0000000000000000e+00 4.3507764096775864e-01  6.8130920219669271e+00 0.0000000000000000e+00 4.2643672709398317e-01  6.9052758350381716e+00 0.0000000000000000e+00 4.1803489593497889e-01  6.9967453018448733e+00 0.0000000000000000e+00 4.0963853730757976e-01  7.0891816418687545e+00 0.0000000000000000e+00 4.0028984187406041e-01  7.1808781323638984e+00 0.0000000000000000e+00 3.9188719365780633e-01  7.2736540331642425e+00 0.0000000000000000e+00 3.8094643014075474e-01  7.3654700125287640e+00 0.0000000000000000e+00 3.7186051487653127e-01  7.4571006938507489e+00 0.0000000000000000e+00 3.6317988095308967e-01  7.5498180014876874e+00 0.0000000000000000e+00 3.5307522278895292e-01  7.6420938709331523e+00 0.0000000000000000e+00 3.4298045798696702e-01  7.7331905472830016e+00 0.0000000000000000e+00 3.3513056969273763e-01  7.8256922300901914e+00 0.0000000000000000e+00 3.2425228847990351e-01  7.9171526987103853e+00 0.0000000000000000e+00 3.1573378846875394e-01  8.0087292083971864e+00 0.0000000000000000e+00 3.0784367377655469e-01  8.1007996976556385e+00 0.0000000000000000e+00 2.9803552598621030e-01  8.1929678825575536e+00 0.0000000000000000e+00 2.8833232201738562e-01  8.2843170056049953e+00 0.0000000000000000e+00 2.8184168477302574e-01  8.3771920877115065e+00 0.0000000000000000e+00 2.7258203346286181e-01  8.4684287396729037e+00 0.0000000000000000e+00 2.6785336745350352e-01  8.5615258997821222e+00 0.0000000000000000e+00 2.6127155799453888e-01  8.6546572856869037e+00 0.0000000000000000e+00 2.6146604638148274e-01  8.7500267996186860e+00 0.0000000000000000e+00 2.6364573126610130e-01  8.8499099553306841e+00 0.0000000000000000e+00 2.7007676887091464e-01  8.9553029054863966e+00 0.0000000000000000e+00 2.7800553504738068e-01  9.0670365046826866e+00 0.0000000000000000e+00 2.7842015000167170e-01  9.1840464624035416e+00 0.0000000000000000e+00 2.6987931361096951e-01  9.2866590969614666e+00 2.4786169827537771e-01 2.3288603447810916e-01  9.2630879076319825e+00 4.7326440417867432e-01 1.4853938878021514e-01  9.2306130131302648e+00 6.6727731497976894e-01 2.6602127601838749e-02  9.1927155398001261e+00 8.2080684077755994e-01 -1.2448552069708230e-01  9.1522779524305644e+00 9.4039533944356590e-01 -2.9287480818478040e-01  9.1090177157822314e+00 1.0239078399595738e+00 -4.7180442403209599e-01  8.9793495054077166e+00 1.0640294913881132e+00 -6.3802133218482615e-01  8.8889729205568848e+00 1.0565527960846255e+00 -6.1814884573271944e-01  8.7993629053034965e+00 1.0503873823059795e+00 -5.9906263326966835e-01  8.7096791096036608e+00 1.0434076049200098e+00 -5.7925005233811899e-01  8.6211288068689456e+00 1.0376554243450880e+00 -5.6232871920941940e-01  8.5332714260150961e+00 1.0340288507299733e+00 -5.4652395113411167e-01  8.4456717031557247e+00 1.0310521677530817e+00 -5.3092441819206959e-01  8.3579975578820367e+00 1.0294555444244355e+00 -5.1600465419131591e-01  8.2697872626452895e+00 1.0278351582666254e+00 -5.0068966697668260e-01  8.1818604410804685e+00 1.0267301524112833e+00 -4.8658596695825856e-01  8.0933364179784597e+00 1.0260092408937209e+00 -4.7231467611348449e-01  8.0046030375681063e+00 1.0264291232538398e+00 -4.5971480950511889e-01  7.9154506034010303e+00 1.0259539103752295e+00 -4.4703328604672793e-01  7.8260499119501707e+00 1.0255545061485425e+00 -4.3477459328093632e-01  7.7367122383947926e+00 1.0258647708203141e+00 -4.2368899013441225e-01  7.6467670360262678e+00 1.0259014112977110e+00 -4.1192133650605656e-01  7.5570720697060487e+00 1.0264136221466538e+00 -4.0034531515707888e-01  7.4670319246926598e+00 1.0271159987391063e+00 -3.8945953532502808e-01  7.3769843950352252e+00 1.0274211615598998e+00 -3.7893099324755281e-01  7.2866585519772125e+00 1.0281337444990499e+00 -3.6845989825336667e-01  7.1962469023467692e+00 1.0285408263481317e+00 -3.5814475430067522e-01  7.1056679772622013e+00 1.0288011181096595e+00 -3.4793230739818976e-01  7.0149454019255604e+00 1.0292765520571401e+00 -3.3829205744025809e-01  6.9242338057407222e+00 1.0288825404960960e+00 -3.2882452694783088e-01  6.8334877457047822e+00 1.0292813621421697e+00 -3.1988624529294257e-01  6.7426762668513653e+00 1.0295240233024157e+00 -3.1097302819868705e-01  6.6517212437103952e+00 1.0297260917021249e+00 -3.0224284786587019e-01  6.5607498775212294e+00 1.0296750656648130e+00 -2.9361976894448905e-01  6.4697567750356288e+00 1.0300671633363352e+00 -2.8534177645141073e-01  6.3787303352159022e+00 1.0298916447244351e+00 -2.7685920297099237e-01  6.2876547362172879e+00 1.0300389999851873e+00 -2.6870644218968637e-01  6.1965937912716296e+00 1.0303442415870496e+00 -2.6080754960610425e-01  6.1055246917135424e+00 1.0300044409973275e+00 -2.5289871064313008e-01  6.0143928152805524e+00 1.0298015157952234e+00 -2.4518574088228232e-01  5.9233390924328626e+00 1.0297331244496377e+00 -2.3765483866224138e-01  5.8322627337093955e+00 1.0295696561325469e+00 -2.3013205620251517e-01  5.7412406231711177e+00 1.0294290161522319e+00 -2.2267618936073347e-01  5.6501486065480107e+00 1.0298395450067024e+00 -2.1538716362709326e-01  5.5590458276936028e+00 1.0301787819579957e+00 -2.0835223806844860e-01  5.4679835851548440e+00 1.0297066909625252e+00 -2.0125880817377939e-01  5.3768750767065638e+00 1.0295984014853488e+00 -1.9436647235439899e-01  5.2857827471457659e+00 1.0298383961132507e+00 -1.8770649171904766e-01  5.1947743835569655e+00 1.0294040235046051e+00 -1.8083778008177764e-01  5.1036812131352605e+00 1.0295883682465587e+00 -1.7426628737472125e-01  5.0125929382518839e+00 1.0297849205493323e+00 -1.6789746259217109e-01  4.9215235536901716e+00 1.0296740432424287e+00 -1.6142859327636089e-01  4.8305721448787668e+00 1.0296936107248218e+00 -1.5520817070730608e-01  4.7395049570005527e+00 1.0299214945797099e+00 -1.4917516548362653e-01  4.6484218798656958e+00 1.0296616979379021e+00 -1.4289879955177315e-01  4.5572264078442766e+00 1.0298163800274083e+00 -1.3672824584571985e-01  4.4661328411904684e+00 1.0299698374059285e+00 -1.3117352032405488e-01  4.3749181930238068e+00 1.0301686532525860e+00 -1.2593144655916647e-01  4.2836842895968426e+00 1.0296568817737779e+00 -1.2055503512459342e-01  4.1927957307291530e+00 1.0299504595648787e+00 -1.1508003442366527e-01  4.1017550995710410e+00 1.0299454793989120e+00 -1.1016859614602881e-01  4.0105942504175056e+00 1.0299658471608297e+00 -1.0504034270191265e-01  3.9194567205971649e+00 1.0297250040363528e+00 -9.9859265393988192e-02  3.8283274240589469e+00 1.0300102020850814e+00 -9.5106937926723131e-02  3.7372996146706887e+00 1.0299224721194822e+00 -9.0577552095799624e-02  3.6463263854697470e+00 1.0299356372484354e+00 -8.6200350787477023e-02  3.5551657689968650e+00 1.0302980887004116e+00 -8.2008464223318756e-02  3.4640593131178683e+00 1.0299259347246610e+00 -7.7749146221915033e-02  3.3728311144775742e+00 1.0297908434314826e+00 -7.3597852868751978e-02  3.2816880046339958e+00 1.0299441516995329e+00 -6.9785911032782519e-02  3.1905272925907115e+00 1.0297498550698418e+00 -6.5829703202997622e-02  3.0993516270525117e+00 1.0290993891715094e+00 -6.1789563199090139e-02  3.0082611056771764e+00 1.0292299156496254e+00 -5.8578683833572502e-02  2.9171296482392388e+00 1.0289868360934475e+00 -5.5100204579960781e-02  2.8260445207952976e+00 1.0291718193473745e+00 -5.1659961077980654e-02  2.7349774521136658e+00 1.0292031840479552e+00 -4.8177345938182639e-02  2.6438026322645358e+00 1.0292266345352392e+00 -4.4713258050361714e-02  2.5525831244906776e+00 1.0292304013790969e+00 -4.1462672633243838e-02  2.4614247923985229e+00 1.0294113855298652e+00 -3.8552987438443397e-02  2.3702945718487811e+00 1.0294350331329505e+00 -3.5590194719276359e-02  2.2791363263160096e+00 1.0294837083276620e+00 -3.2669727318206651e-02  2.1880460527367718e+00 1.0292584683702808e+00 -2.9811628637719589e-02  2.0969805127766934e+00 1.0292389001431832e+00 -2.7328432108180405e-02  2.0059184286317979e+00 1.0295002097868304e+00 -2.4944555866077432e-02  1.9147096862618616e+00 1.0294972954677377e+00 -2.2589545419100361e-02  1.8234785124963779e+00 1.0292848780160455e+00 -2.0014068947295172e-02  1.7323229265489313e+00 1.0296118966781993e+00 -1.7922657944679909e-02  1.6410778818649459e+00 1.0297966071248659e+00 -1.5802893052256864e-02  1.5498894433413910e+00 1.0292862942426964e+00 -1.3553533430116029e-02  1.4587082705243288e+00 1.0293660340532020e+00 -1.1918445147326573e-02  1.3676259795760466e+00 1.0292713478883802e+00 -1.0411880588278796e-02  1.2765129751350655e+00 1.0293457816931055e+00 -8.8409376972582738e-03  1.1853877302769362e+00 1.0291979221175647e+00 -7.0668949721573232e-03  1.0942615593897058e+00 1.0295665437346775e+00 -5.9344568537189214e-03  1.0031135526985799e+00 1.0296517892078223e+00 -4.7527499842105643e-03  9.1193074754008696e-01 1.0296259603123037e+00 -3.6227024257597471e-03  8.2067801355290104e-01 1.0294758784294979e+00 -2.6935897833886896e-03  7.2949351490590053e-01 1.0293689103632218e+00 -2.0104992848898971e-03  6.3824719630461690e-01 1.0293392629147051e+00 -1.4047984290481564e-03  5.4694728211271015e-01 1.0291035763113807e+00 -6.6449066170009511e-04  4.5578301427819046e-01 1.0288722927422054e+00 -2.5309386821329604e-04  3.6458898633509479e-01 1.0289979718054936e+00 -2.6519211165991301e-04  2.7341165058333844e-01 1.0284364380687587e+00 -7.2821148513725704e-05  1.8224717539952706e-01 1.0283048754872235e+00 0.0000000000000000e+00  9.1100357563808576e-02 1.0278415746710594e+00 0.0000000000000000e+00  9.0837532503392211e+00 9.0274538703228691e-01 -6.3484139907995596e-01  9.0962773182601797e+00 7.2703561822437579e-01 -6.2012060634744492e-01  9.1106701416236096e+00 5.5286905144230780e-01 -6.0832131168345482e-01  9.1170451585900487e+00 3.6678155642657134e-01 -6.0341909197019161e-01  9.1264664716484134e+00 1.8228804212532884e-01 -5.9599484785229717e-01  9.0424443557739345e+00 0.0000000000000000e+00 -5.7227966585333812e-01  8.9513572848742751e+00 0.0000000000000000e+00 -5.5709702840135911e-01  8.8590289163709119e+00 0.0000000000000000e+00 -5.3889260703500219e-01  8.7660412654059492e+00 0.0000000000000000e+00 -5.2474328891575439e-01  8.6741505840805608e+00 0.0000000000000000e+00 -5.1405723059652597e-01  8.5812978227030108e+00 0.0000000000000000e+00 -5.0150851252873618e-01  8.4895943605229380e+00 0.0000000000000000e+00 -4.9169810961757249e-01  8.3968790396126618e+00 0.0000000000000000e+00 -4.8234865667248500e-01  8.3038074879448871e+00 0.0000000000000000e+00 -4.7030367347031560e-01  8.2115821048190902e+00 0.0000000000000000e+00 -4.6306394732852924e-01  8.1192105543630682e+00 0.0000000000000000e+00 -4.5445780911028294e-01  8.0272467387742736e+00 0.0000000000000000e+00 -4.4439347423272119e-01  7.9352090310182239e+00 0.0000000000000000e+00 -4.3402548008695135e-01  7.8427230249301845e+00 0.0000000000000000e+00 -4.2368835359585577e-01  7.7509779203620024e+00 0.0000000000000000e+00 -4.1612873690109525e-01  7.6595218778463012e+00 0.0000000000000000e+00 -4.0725787435202881e-01  7.5681209014069930e+00 0.0000000000000000e+00 -3.9744935641256368e-01  7.4758917260869788e+00 0.0000000000000000e+00 -3.8706537211732495e-01  7.3839443409576377e+00 0.0000000000000000e+00 -3.8007166813191073e-01  7.2925867130588369e+00 0.0000000000000000e+00 -3.7026622928948444e-01  7.2008948086366553e+00 0.0000000000000000e+00 -3.6029229074727009e-01  7.1099553777331117e+00 0.0000000000000000e+00 -3.5235396881714981e-01  7.0183963026403857e+00 0.0000000000000000e+00 -3.4212380997990538e-01  6.9267704091186362e+00 0.0000000000000000e+00 -3.3428218324096959e-01  6.8358886940452326e+00 0.0000000000000000e+00 -3.2551651878991289e-01  6.7447146572633541e+00 0.0000000000000000e+00 -3.1608119977461563e-01  6.6531514950578856e+00 0.0000000000000000e+00 -3.0689504992257660e-01  6.5617755467149683e+00 0.0000000000000000e+00 -2.9982083133697890e-01  6.4704637589119942e+00 0.0000000000000000e+00 -2.9095721460518048e-01  6.3791812081609631e+00 0.0000000000000000e+00 -2.8365340924703336e-01  6.2885795920263492e+00 0.0000000000000000e+00 -2.7618413272211861e-01  6.1976150249255246e+00 0.0000000000000000e+00 -2.6773028636288970e-01  6.1062698832864237e+00 0.0000000000000000e+00 -2.5801777436073536e-01  6.0148869167310739e+00 0.0000000000000000e+00 -2.5127095643673519e-01  5.9234388129529476e+00 0.0000000000000000e+00 -2.4210738737142423e-01  5.8326969322970488e+00 0.0000000000000000e+00 -2.3636940860775876e-01  5.7414599954248473e+00 0.0000000000000000e+00 -2.2808576966566785e-01  5.6497455907316532e+00 0.0000000000000000e+00 -2.2008782329565563e-01  5.5585348369134628e+00 0.0000000000000000e+00 -2.1383998152884950e-01  5.4676140221635725e+00 0.0000000000000000e+00 -2.0570441167820644e-01  5.3769601632511606e+00 0.0000000000000000e+00 -2.0020263198315905e-01  5.2863028269921006e+00 0.0000000000000000e+00 -1.9253395454106587e-01  5.1948911589560343e+00 0.0000000000000000e+00 -1.8491000281636871e-01  5.1043562973257268e+00 0.0000000000000000e+00 -1.8017244654805287e-01  5.0135464492535196e+00 0.0000000000000000e+00 -1.7364951197463907e-01  4.9221993573873215e+00 0.0000000000000000e+00 -1.6573778281943061e-01  4.8311748637562539e+00 0.0000000000000000e+00 -1.6084667882615955e-01  4.7398141226447255e+00 0.0000000000000000e+00 -1.5427271702767181e-01  4.6483887823677401e+00 0.0000000000000000e+00 -1.4944405716999548e-01  4.5575090357209760e+00 0.0000000000000000e+00 -1.4355838389219411e-01  4.4664677210290984e+00 0.0000000000000000e+00 -1.3830877433140010e-01  4.3751401251902999e+00 0.0000000000000000e+00 -1.3156119817666101e-01  4.2843742501483781e+00 0.0000000000000000e+00 -1.28