<?xml version="1.0"?>
<VTKFile type="UnstructuredGrid"  version="0.1"  >
<UnstructuredGrid>
<Piece  NumberOfPoints="3069" NumberOfCells="12882">
<Points>
<DataArray  type="Float64"  NumberOfComponents="3"  format="ascii">0 0 0  0 0 4  0 5.65685415 0  50 0 4  50 5.65685415 0  50 0 0  0 0 1  0 0 2  0 0 3  0 1.04967844 3.90746784  0 2.0669806 3.632725  0 3.02052855 3.18424606  0 3.88091111 2.5758636  0 4.62159061 1.82634306  0 5.21972132 0.958802283  0 4.71404505 0  0 3.77123618 0  0 2.82842708 0  0 1.88561809 0  0 0.942809045 0  0.5 0 4  1 0 4  1.5 0 4  2 0 4  2.5 0 4  3 0 4  3.5 0 4  4 0 4  4.5 0 4  5 0 4  5.5 0 4  6 0 4  6.5 0 4  7 0 4  7.5 0 4  8 0 4  8.5 0 4  9 0 4  9.5 0 4  10 0 4  10.5 0 4  11 0 4  11.5 0 4  12 0 4  12.5 0 4  13 0 4  13.5 0 4  14 0 4  14.5 0 4  15 0 4  15.5 0 4  16 0 4  16.5 0 4  17 0 4  17.5 0 4  18 0 4  18.5 0 4  19 0 4  19.5 0 4  20 0 4  20.5 0 4  21 0 4  21.5 0 4  22 0 4  22.5 0 4  23 0 4  23.5 0 4  24 0 4  24.5 0 4  25 0 4  25.5 0 4  26 0 4  26.5 0 4  27 0 4  27.5 0 4  28 0 4  28.5 0 4  29 0 4  29.5 0 4  30 0 4  30.5 0 4  31 0 4  31.5 0 4  32 0 4  32.5 0 4  33 0 4  33.5 0 4  34 0 4  34.5 0 4  35 0 4  35.5 0 4  36 0 4  36.5 0 4  37 0 4  37.5 0 4  38 0 4  38.5 0 4  39 0 4  39.5 0 4  40 0 4  40.5 0 4  41 0 4  41.5 0 4  42 0 4  42.5 0 4  43 0 4  43.5 0 4  44 0 4  44.5 0 4  45 0 4  45.5 0 4  46 0 4  46.5 0 4  47 0 4  47.5 0 4  48 0 4  48.5 0 4  49 0 4  49.5 0 4  50 1.04967844 3.90746784  50 2.0669806 3.632725  50 3.02052855 3.18424606  50 3.88091111 2.5758636  50 4.62159061 1.82634306  50 5.21972132 0.958802283  49.5 5.65685415 0  49 5.65685415 0  48.5 5.65685415 0  48 5.65685415 0  47.5 5.65685415 0  47 5.65685415 0  46.5 5.65685415 0  46 5.65685415 0  45.5 5.65685415 0  45 5.65685415 0  44.5 5.65685415 0  44 5.65685415 0  43.5 5.65685415 0  43 5.65685415 0  42.5 5.65685415 0  42 5.65685415 0  41.5 5.65685415 0  41 5.65685415 0  40.5 5.65685415 0  40 5.65685415 0  39.5 5.65685415 0  39 5.65685415 0  38.5 5.65685415 0  38 5.65685415 0  37.5 5.65685415 0  37 5.65685415 0  36.5 5.65685415 0  36 5.65685415 0  35.5 5.65685415 0  35 5.65685415 0  34.5 5.65685415 0  34 5.65685415 0  33.5 5.65685415 0  33 5.65685415 0  32.5 5.65685415 0  32 5.65685415 0  31.5 5.65685415 0  31 5.65685415 0  30.5 5.65685415 0  30 5.65685415 0  29.5 5.65685415 0  29 5.65685415 0  28.5 5.65685415 0  28 5.65685415 0  27.5 5.65685415 0  27 5.65685415 0  26.5 5.65685415 0  26 5.65685415 0  25.5 5.65685415 0  25 5.65685415 0  24.5 5.65685415 0  24 5.65685415 0  23.5 5.65685415 0  23 5.65685415 0  22.5 5.65685415 0  22 5.65685415 0  21.5 5.65685415 0  21 5.65685415 0  20.5 5.65685415 0  20 5.65685415 0  19.5 5.65685415 0  19 5.65685415 0  18.5 5.65685415 0  18 5.65685415 0  17.5 5.65685415 0  17 5.65685415 0  16.5 5.65685415 0  16 5.65685415 0  15.5 5.65685415 0  15 5.65685415 0  14.5 5.65685415 0  14 5.65685415 0  13.5 5.65685415 0  13 5.65685415 0  12.5 5.65685415 0  12 5.65685415 0  11.5 5.65685415 0  11 5.65685415 0  10.5 5.65685415 0  10 5.65685415 0  9.5 5.65685415 0  9 5.65685415 0  8.5 5.65685415 0  8 5.65685415 0  7.5 5.65685415 0  7 5.65685415 0  6.5 5.65685415 0  6 5.65685415 0  5.5 5.65685415 0  5 5.65685415 0  4.5 5.65685415 0  4 5.65685415 0  3.5 5.65685415 0  3 5.65685415 0  2.5 5.65685415 0  2 5.65685415 0  1.5 5.65685415 0  1 5.65685415 0  0.5 5.65685415 0  50 4.71404505 0  50 3.77123618 0  50 2.82842708 0  50 1.88561809 0  50 0.942809045 0  49.5 0 0  49 0 0  48.5 0 0  48 0 0  47.5 0 0  47 0 0  46.5 0 0  46 0 0  45.5 0 0  45 0 0  44.5 0 0  44 0 0  43.5 0 0  43 0 0  42.5 0 0  42 0 0  41.5 0 0  41 0 0  40.5 0 0  40 0 0  39.5 0 0  39 0 0  38.5 0 0  38 0 0  37.5 0 0  37 0 0  36.5 0 0  36 0 0  35.5 0 0  35 0 0  34.5 0 0  34 0 0  33.5 0 0  33 0 0  32.5 0 0  32 0 0  31.5 0 0  31 0 0  30.5 0 0  30 0 0  29.5 0 0  29 0 0  28.5 0 0  28 0 0  27.5 0 0  27 0 0  26.5 0 0  26 0 0  25.5 0 0  25 0 0  24.5 0 0  24 0 0  23.5 0 0  23 0 0  22.5 0 0  22 0 0  21.5 0 0  21 0 0  20.5 0 0  20 0 0  19.5 0 0  19 0 0  18.5 0 0  18 0 0  17.5 0 0  17 0 0  16.5 0 0  16 0 0  15.5 0 0  15 0 0  14.5 0 0  14 0 0  13.5 0 0  13 0 0  12.5 0 0  12 0 0  11.5 0 0  11 0 0  10.5 0 0  10 0 0  9.5 0 0  9 0 0  8.5 0 0  8 0 0  7.5 0 0  7 0 0  6.5 0 0  6 0 0  5.5 0 0  5 0 0  4.5 0 0  4 0 0  3.5 0 0  3 0 0  2.5 0 0  2 0 0  1.5 0 0  1 0 0  0.5 0 0  50 0 1  50 0 2  50 0 3  0 2.33524275 0.893602192  0 2.87561393 1.93323028  0 4.2367816 0.876864135  0 2.00050235 2.65534091  0 0.981494486 2.34323239  0 3.78543234 1.61830366  0 3.30545568 0.887000024  0 0.812916458 1.58408713  0 1.71948838 1.71268857  0 1.28267908 0.8650629520000001  0 1.21973121 3.10775328  0.5 5.21972132 0.958802223  0.5 4.62159061 1.82634306  0.5 3.88091111 2.5758636  0.5 3.02052855 3.18424606  0.5 2.0669806 3.632725  0.5 1.04967844 3.90746784  1 5.21972132 0.958802223  1 4.62159061 1.82634306  1 3.88091111 2.5758636  1 3.02052855 3.18424606  1 2.0669806 3.632725  1 1.04967844 3.90746784  1.5 5.21972132 0.958802223  1.5 4.62159061 1.82634306  1.5 3.88091111 2.5758636  1.5 3.02052855 3.18424606  1.5 2.0669806 3.632725  1.5 1.04967844 3.90746784  2 5.21972132 0.958802223  2 4.62159061 1.82634306  2 3.88091111 2.5758636  2 3.02052855 3.18424606  2 2.0669806 3.632725  2 1.04967844 3.90746784  2.5 5.21972132 0.958802223  2.5 4.62159061 1.82634306  2.5 3.88091111 2.5758636  2.5 3.02052855 3.18424606  2.5 2.0669806 3.632725  2.5 1.04967844 3.90746784  3 5.21972132 0.958802223  3 4.62159061 1.82634306  3 3.88091111 2.5758636  3 3.02052855 3.18424606  3 2.0669806 3.632725  3 1.04967844 3.90746784  3.5 5.21972132 0.958802223  3.5 4.62159061 1.82634306  3.5 3.88091111 2.5758636  3.5 3.02052855 3.18424606  3.5 2.0669806 3.632725  3.5 1.04967844 3.90746784  4 5.21972132 0.958802223  4 4.62159061 1.82634306  4 3.88091111 2.5758636  4 3.02052855 3.18424606  4 2.0669806 3.632725  4 1.04967844 3.90746784  4.5 5.21972132 0.958802223  4.5 4.62159061 1.82634306  4.5 3.88091111 2.5758636  4.5 3.02052855 3.18424606  4.5 2.0669806 3.632725  4.5 1.04967844 3.90746784  5 5.21972132 0.958802223  5 4.62159061 1.82634306  5 3.88091111 2.5758636  5 3.02052855 3.18424606  5 2.0669806 3.632725  5 1.04967844 3.90746784  5.5 5.21972132 0.958802223  5.5 4.62159061 1.82634306  5.5 3.88091111 2.5758636  5.5 3.02052855 3.18424606  5.5 2.0669806 3.632725  5.5 1.04967844 3.90746784  6 5.21972132 0.958802223  6 4.62159061 1.82634306  6 3.88091111 2.5758636  6 3.02052855 3.18424606  6 2.0669806 3.632725  6 1.04967844 3.90746784  6.5 5.21972132 0.958802223  6.5 4.62159061 1.82634306  6.5 3.88091111 2.5758636  6.5 3.02052855 3.18424606  6.5 2.0669806 3.632725  6.5 1.04967844 3.90746784  7 5.21972132 0.958802223  7 4.62159061 1.82634306  7 3.88091111 2.5758636  7 3.02052855 3.18424606  7 2.0669806 3.632725  7 1.04967844 3.90746784  7.5 5.21972132 0.958802223  7.5 4.62159061 1.82634306  7.5 3.88091111 2.5758636  7.5 3.02052855 3.18424606  7.5 2.0669806 3.632725  7.5 1.04967844 3.90746784  8 5.21972132 0.958802223  8 4.62159061 1.82634306  8 3.88091111 2.5758636  8 3.02052855 3.18424606  8 2.0669806 3.632725  8 1.04967844 3.90746784  8.5 5.21972132 0.958802223  8.5 4.62159061 1.82634306  8.5 3.88091111 2.5758636  8.5 3.02052855 3.18424606  8.5 2.0669806 3.632725  8.5 1.04967844 3.90746784  9 5.21972132 0.958802223  9 4.62159061 1.82634306  9 3.88091111 2.5758636  9 3.02052855 3.18424606  9 2.0669806 3.632725  9 1.04967844 3.90746784  9.5 5.21972132 0.958802223  9.5 4.62159061 1.82634306  9.5 3.88091111 2.5758636  9.5 3.02052855 3.18424606  9.5 2.0669806 3.632725  9.5 1.04967844 3.90746784  10 5.21972132 0.958802223  10 4.62159061 1.82634306  10 3.88091111 2.5758636  10 3.02052855 3.18424606  10 2.0669806 3.632725  10 1.04967844 3.90746784  10.5 5.21972132 0.958802223  10.5 4.62159061 1.82634306  10.5 3.88091111 2.5758636  10.5 3.02052855 3.18424606  10.5 2.0669806 3.632725  10.5 1.04967844 3.90746784  11 5.21972132 0.958802223  11 4.62159061 1.82634306  11 3.88091111 2.5758636  11 3.02052855 3.18424606  11 2.0669806 3.632725  11 1.04967844 3.90746784  11.5 5.21972132 0.958802223  11.5 4.62159061 1.82634306  11.5 3.88091111 2.5758636  11.5 3.02052855 3.18424606  11.5 2.0669806 3.632725  11.5 1.04967844 3.90746784  12 5.21972132 0.958802223  12 4.62159061 1.82634306  12 3.88091111 2.5758636  12 3.02052855 3.18424606  12 2.0669806 3.632725  12 1.04967844 3.90746784  12.5 5.21972132 0.958802223  12.5 4.62159061 1.82634306  12.5 3.88091111 2.5758636  12.5 3.02052855 3.18424606  12.5 2.0669806 3.632725  12.5 1.04967844 3.90746784  13 5.21972132 0.958802223  13 4.62159061 1.82634306  13 3.88091111 2.5758636  13 3.02052855 3.18424606  13 2.0669806 3.632725  13 1.04967844 3.90746784  13.5 5.21972132 0.958802223  13.5 4.62159061 1.82634306  13.5 3.88091111 2.5758636  13.5 3.02052855 3.18424606  13.5 2.0669806 3.632725  13.5 1.04967844 3.90746784  14 5.21972132 0.958802223  14 4.62159061 1.82634306  14 3.88091111 2.5758636  14 3.02052855 3.18424606  14 2.0669806 3.632725  14 1.04967844 3.90746784  14.5 5.21972132 0.958802223  14.5 4.62159061 1.82634306  14.5 3.88091111 2.5758636  14.5 3.02052855 3.18424606  14.5 2.0669806 3.632725  14.5 1.04967844 3.90746784  15 5.21972132 0.958802223  15 4.62159061 1.82634306  15 3.88091111 2.5758636  15 3.02052855 3.18424606  15 2.0669806 3.632725  15 1.04967844 3.90746784  15.5 5.21972132 0.958802223  15.5 4.62159061 1.82634306  15.5 3.88091111 2.5758636  15.5 3.02052855 3.18424606  15.5 2.0669806 3.632725  15.5 1.04967844 3.90746784  16 5.21972132 0.958802223  16 4.62159061 1.82634306  16 3.88091111 2.5758636  16 3.02052855 3.18424606  16 2.0669806 3.632725  16 1.04967844 3.90746784  16.5 5.21972132 0.958802223  16.5 4.62159061 1.82634306  16.5 3.88091111 2.5758636  16.5 3.02052855 3.18424606  16.5 2.0669806 3.632725  16.5 1.04967844 3.90746784  17 5.21972132 0.958802223  17 4.62159061 1.82634306  17 3.88091111 2.5758636  17 3.02052855 3.18424606  17 2.0669806 3.632725  17 1.04967844 3.90746784  17.5 5.21972132 0.958802223  17.5 4.62159061 1.82634306  17.5 3.88091111 2.5758636  17.5 3.02052855 3.18424606  17.
[...]
<PointData  Vectors="f_261141-0"> 
<DataArray  type="Float64"  Name="f_261141-0"  NumberOfComponents="3" format="ascii">0.0000000000000000e+00 0.0000000000000000e+00 0.0000000000000000e+00  0.0000000000000000e+00 0.0000000000000000e+00 7.5861838899759282e-01  0.0000000000000000e+00 1.0338168452198913e+00 0.0000000000000000e+00  9.4905260025593510e+00 0.0000000000000000e+00 -2.6747818809054724e-01  9.1200449612686807e+00 1.0914160085071885e+00 -1.2416697058029880e+00  9.2045807867583189e+00 0.0000000000000000e+00 -1.1524416034994642e+00  0.0000000000000000e+00 0.0000000000000000e+00 1.7797400887494144e-01  0.0000000000000000e+00 0.0000000000000000e+00 3.7459780877657550e-01  0.0000000000000000e+00 0.0000000000000000e+00 5.7705634165726016e-01  0.0000000000000000e+00 2.0961585319572448e-01 7.3595100975241123e-01  0.0000000000000000e+00 3.9539680197909083e-01 6.7108134696150545e-01  0.0000000000000000e+00 5.6973512650167424e-01 5.8428178013587806e-01  0.0000000000000000e+00 7.2420647620035616e-01 4.6958126765335678e-01  0.0000000000000000e+00 8.5551000771730701e-01 3.2820358641947239e-01  0.0000000000000000e+00 9.5996006180155524e-01 1.7159756037608775e-01  0.0000000000000000e+00 8.6632348680050408e-01 0.0000000000000000e+00  0.0000000000000000e+00 6.9692949189468145e-01 0.0000000000000000e+00  0.0000000000000000e+00 5.2719254361744605e-01 0.0000000000000000e+00  0.0000000000000000e+00 3.5564032005218116e-01 0.0000000000000000e+00  0.0000000000000000e+00 1.7972469011921258e-01 0.0000000000000000e+00  9.3170868851100444e-02 0.0000000000000000e+00 7.5933729698411723e-01  1.8716125148112892e-01 0.0000000000000000e+00 7.5949764831317934e-01  2.8111674218063853e-01 0.0000000000000000e+00 7.5995121629620377e-01  3.7573371151287827e-01 0.0000000000000000e+00 7.5856575979536078e-01  4.6793583528529514e-01 0.0000000000000000e+00 7.6108163423463804e-01  5.6308531353463376e-01 0.0000000000000000e+00 7.5765284625190632e-01  6.5569306816405104e-01 0.0000000000000000e+00 7.5692365863824895e-01  7.5083994213688610e-01 0.0000000000000000e+00 7.5280457312810800e-01  8.4463230144020829e-01 0.0000000000000000e+00 7.4948344622184537e-01  9.3819079973498654e-01 0.0000000000000000e+00 7.4538843307639979e-01  1.0312429585831246e+00 0.0000000000000000e+00 7.4357632639461835e-01  1.1249642534547766e+00 0.0000000000000000e+00 7.4319585006417488e-01  1.2188557979832610e+00 0.0000000000000000e+00 7.4110936929609217e-01  1.3143576903050611e+00 0.0000000000000000e+00 7.3510948530401510e-01  1.4066074383601546e+00 0.0000000000000000e+00 7.3377933153149066e-01  1.5019234622140623e+00 0.0000000000000000e+00 7.2939119463000246e-01  1.5956419588194186e+00 0.0000000000000000e+00 7.2540868984544915e-01  1.6895684209609712e+00 0.0000000000000000e+00 7.2055682244086705e-01  1.7826722995772062e+00 0.0000000000000000e+00 7.1779960091693662e-01  1.8759446355660130e+00 0.0000000000000000e+00 7.1424015576728606e-01  1.9693736478615940e+00 0.0000000000000000e+00 7.1246931289799720e-01  2.0626212556654631e+00 0.0000000000000000e+00 7.0587565180913525e-01  2.1567966099616016e+00 0.0000000000000000e+00 7.0231175825625880e-01  2.2507795497543550e+00 0.0000000000000000e+00 6.9631103986098664e-01  2.3436534119756951e+00 0.0000000000000000e+00 6.9312692883904070e-01  2.4385261442387680e+00 0.0000000000000000e+00 6.8529408368731615e-01  2.5327267115722409e+00 0.0000000000000000e+00 6.7823145997075074e-01  2.6255870134353927e+00 0.0000000000000000e+00 6.7395175227822623e-01  2.7198151312338115e+00 0.0000000000000000e+00 6.6700476701366473e-01  2.8145038727091429e+00 0.0000000000000000e+00 6.5737459095467388e-01  2.9051470880138681e+00 0.0000000000000000e+00 6.5743698688076013e-01  2.9980315913668063e+00 0.0000000000000000e+00 6.4833356289581545e-01  3.0921645604314549e+00 0.0000000000000000e+00 6.3970360315132757e-01  3.1864266244550485e+00 0.0000000000000000e+00 6.3105053454690829e-01  3.2813784250526701e+00 0.0000000000000000e+00 6.2231867518527062e-01  3.3756205061050588e+00 0.0000000000000000e+00 6.1481835068908652e-01  3.4702504933786802e+00 0.0000000000000000e+00 6.0673147519365045e-01  3.5634672875136482e+00 0.0000000000000000e+00 6.0066218540103611e-01  3.6581404355042939e+00 0.0000000000000000e+00 5.8951960507353274e-01  3.7514817941956178e+00 0.0000000000000000e+00 5.8211578969851263e-01  3.8435508759842065e+00 0.0000000000000000e+00 5.7533370204737844e-01  3.9384217005418880e+00 0.0000000000000000e+00 5.6631812305542384e-01  4.0311309702419003e+00 0.0000000000000000e+00 5.5750503059854495e-01  4.1267768949707664e+00 0.0000000000000000e+00 5.4322245206963793e-01  4.2189779364953299e+00 0.0000000000000000e+00 5.3480444505862901e-01  4.3122458558591399e+00 0.0000000000000000e+00 5.2412878393249751e-01  4.4057243361555098e+00 0.0000000000000000e+00 5.1571068939190612e-01  4.5000453576820325e+00 0.0000000000000000e+00 5.0428193050404957e-01  4.5936365754097075e+00 0.0000000000000000e+00 4.9411463131907746e-01  4.6878914448319300e+00 0.0000000000000000e+00 4.8251116233986252e-01  4.7821519627446607e+00 0.0000000000000000e+00 4.6966628084508555e-01  4.8750123602938613e+00 0.0000000000000000e+00 4.6033739675737845e-01  4.9696056308211096e+00 0.0000000000000000e+00 4.4594156824893100e-01  5.0622802553447590e+00 0.0000000000000000e+00 4.3608011262972657e-01  5.1561885996124159e+00 0.0000000000000000e+00 4.2284921804356529e-01  5.2513992781363958e+00 0.0000000000000000e+00 4.1026355905102641e-01  5.3448400577845563e+00 0.0000000000000000e+00 3.9669789340755551e-01  5.4377320819567672e+00 0.0000000000000000e+00 3.8452110192041927e-01  5.5313227579098081e+00 0.0000000000000000e+00 3.7321920084745280e-01  5.6260813618603329e+00 0.0000000000000000e+00 3.5735926155070152e-01  5.7197322460774025e+00 0.0000000000000000e+00 3.4121150776128600e-01  5.8125452617016036e+00 0.0000000000000000e+00 3.2981276037935736e-01  5.9066029100071438e+00 0.0000000000000000e+00 3.1431015994565892e-01  6.0005331696595858e+00 0.0000000000000000e+00 2.9915652125186448e-01  6.0932124509387231e+00 0.0000000000000000e+00 2.8808850828405130e-01  6.1880843935580883e+00 0.0000000000000000e+00 2.7197739571804463e-01  6.2822663268998671e+00 0.0000000000000000e+00 2.5717889768186691e-01  6.3750301119705464e+00 0.0000000000000000e+00 2.4227270667227074e-01  6.4693294050347818e+00 0.0000000000000000e+00 2.2502763468191730e-01  6.5623160675828709e+00 0.0000000000000000e+00 2.0871387777962422e-01  6.6555287978892821e+00 0.0000000000000000e+00 1.9376405497109037e-01  6.7489777586175528e+00 0.0000000000000000e+00 1.7608019781866252e-01  6.8435859683337927e+00 0.0000000000000000e+00 1.5691146550153945e-01  6.9373792652513941e+00 0.0000000000000000e+00 1.3984395687921036e-01  7.0313004090990798e+00 0.0000000000000000e+00 1.2327068646933911e-01  7.1238605089648424e+00 0.0000000000000000e+00 1.0657813839816691e-01  7.2182570061104379e+00 0.0000000000000000e+00 8.8174115303761666e-02  7.3112173065149131e+00 0.0000000000000000e+00 7.1446831996734725e-02  7.4061875093209926e+00 0.0000000000000000e+00 4.9870900215142101e-02  7.4993350111557451e+00 0.0000000000000000e+00 3.1783897730807122e-02  7.5922584319007509e+00 0.0000000000000000e+00 1.4320701165984844e-02  7.6873086928610412e+00 0.0000000000000000e+00 -5.6064127918876907e-03  7.7814034669784036e+00 0.0000000000000000e+00 -2.5724200037147343e-02  7.8734432684975255e+00 0.0000000000000000e+00 -4.1850737983398438e-02  7.9679690108215473e+00 0.0000000000000000e+00 -6.3513034503068957e-02  8.0606285442445138e+00 0.0000000000000000e+00 -8.1199040907787942e-02  8.1536900026311585e+00 0.0000000000000000e+00 -9.8274828528481753e-02  8.2473935060350030e+00 0.0000000000000000e+00 -1.1874299420623524e-01  8.3412087595584765e+00 0.0000000000000000e+00 -1.3955271993014126e-01  8.4336779599067526e+00 0.0000000000000000e+00 -1.5552306294748341e-01  8.5283366686057889e+00 0.0000000000000000e+00 -1.7581989423390981e-01  8.6206421834482967e+00 0.0000000000000000e+00 -1.9007942958985202e-01  8.7151374156694192e+00 0.0000000000000000e+00 -2.0644704362955521e-01  8.8095179462332975e+00 0.0000000000000000e+00 -2.1413783365446062e-01  8.9066201614875933e+00 0.0000000000000000e+00 -2.1927664476591829e-01  9.0097624888568397e+00 0.0000000000000000e+00 -2.1848501543329868e-01  9.1200384277181517e+00 0.0000000000000000e+00 -2.1473576336040257e-01  9.2388615214581282e+00 0.0000000000000000e+00 -2.2125307377681377e-01  9.3647114569036294e+00 0.0000000000000000e+00 -2.4057853250067726e-01  9.4695041099282218e+00 2.6827232404527673e-01 -2.9107102182227967e-01  9.4344228323491368e+00 5.0852459424327678e-01 -3.8645469038523406e-01  9.3840857103677191e+00 7.1179882064816291e-01 -5.2196086980044409e-01  9.3235356351365493e+00 8.6603058676283151e-01 -6.8718285058441098e-01  9.2576545976434073e+00 9.8068591561950325e-01 -8.6774479691801831e-01  9.1861254668222614e+00 1.0543137170570061e+00 -1.0542390614322894e+00  9.0296828325777998e+00 1.0799347756882067e+00 -1.2100967081925464e+00  8.9397504353465269e+00 1.0699228620071399e+00 -1.1760671672400773e+00  8.8508720417199989e+00 1.0617652760167886e+00 -1.1432005325959860e+00  8.7618522845780493e+00 1.0525251534395468e+00 -1.1093080599676859e+00  8.6743178848335010e+00 1.0450273018454579e+00 -1.0795666582640804e+00  8.5876402905955960e+00 1.0404597103473026e+00 -1.0514616870454987e+00  8.5012532190795493e+00 1.0365677012662342e+00 -1.0235705256047969e+00  8.4146315008013310e+00 1.0347105945481494e+00 -9.9663193641216019e-01  8.3272832894070845e+00 1.0328063089998003e+00 -9.6922601471525183e-01  8.2402453228650714e+00 1.0315279510786362e+00 -9.4345766847071733e-01  8.1523293449554739e+00 1.0308799391603407e+00 -9.1755110545638285e-01  8.0640793309447218e+00 1.0319141931475047e+00 -8.9404032188307936e-01  7.9751971353472975e+00 1.0314555169323154e+00 -8.7029991886278424e-01  7.8859477307343413e+00 1.0310498720060910e+00 -8.4732574123411319e-01  7.7968086399620269e+00 1.0318434379613390e+00 -8.2639461488503918e-01  7.7063914482195113e+00 1.0317234395464918e+00 -8.0449565734672623e-01  7.6167603234315937e+00 1.0325365997996292e+00 -7.8253314770092997e-01  7.5265408990407350e+00 1.0337955735083975e+00 -7.6167955499484830e-01  7.4363898221370581e+00 1.0343121886408508e+00 -7.4155930242051127e-01  7.3458074238246640e+00 1.0355068888476695e+00 -7.2143961086030051e-01  7.2550881788383652e+00 1.0362175449419084e+00 -7.0150046659842868e-01  7.1641035488414166e+00 1.0365875021892934e+00 -6.8170087065417750e-01  7.0728725891260353e+00 1.0374217817502740e+00 -6.6300000600387399e-01  6.9816974534159524e+00 1.0365202161653715e+00 -6.4459971585659448e-01  6.8904862280615840e+00 1.0371907107419116e+00 -6.2723116602950235e-01  6.7991644306863899e+00 1.0375863102464744e+00 -6.0986182104708320e-01  6.7075802977665884e+00 1.0378795837620025e+00 -5.9281806749428334e-01  6.6159806696479446e+00 1.0377552205123857e+00 -5.7599961136465549e-01  6.5243481441162361e+00 1.0384419323910306e+00 -5.5980901931533500e-01  6.4326723507478025e+00 1.0380433196275054e+00 -5.4319381361162411e-01  6.3409052795329730e+00 1.0382830951108779e+00 -5.2722079429433655e-01  6.2491722443475775e+00 1.0388589012460521e+00 -5.1173913561709949e-01  6.1574281971606197e+00 1.0381559909487192e+00 -4.9623541241002661e-01  6.0655610378466536e+00 1.0377081120349312e+00 -4.8110436778744903e-01  5.9738477109032786e+00 1.0375416068495589e+00 -4.6633047030380997e-01  5.8820961167916197e+00 1.0371953138701642e+00 -4.5156685084227394e-01  5.7904533676014616e+00 1.0369011478145600e+00 -4.3693021055962861e-01  5.6986659178068049e+00 1.0377011929241799e+00 -4.2262144540870988e-01  5.6068536361516230e+00 1.0383631795074733e+00 -4.0882580867700224e-01  5.5151246485936438e+00 1.0374017045794268e+00 -3.9490965201271538e-01  5.4232987378262987e+00 1.0371706658933699e+00 -3.8138135844296589e-01  5.3315091158197454e+00 1.0376469887483932e+00 -3.6832044653683860e-01  5.2398925428182936e+00 1.0367803678998022e+00 -3.5483231681844796e-01  5.1480920580145382e+00 1.0371482335828475e+00 -3.4191771687576977e-01  5.0562998466402291e+00 1.0375498621938275e+00 -3.2941459652799032e-01  4.9645500638703766e+00 1.0373252448503811e+00 -3.1669856662647217e-01  4.8730286045944835e+00 1.0373631164117827e+00 -3.0448071615753747e-01  4.7812669788819795e+00 1.0378226203337038e+00 -2.9263971772436492e-01  4.6894786528434000e+00 1.0372973633723754e+00 -2.8029202676978821e-01  4.5974666784962750e+00 1.0376100074352197e+00 -2.6814662538368772e-01  4.5056447976745444e+00 1.0379273936196067e+00 -2.5724975160053593e-01  4.4135745072890531e+00 1.0383237930235127e+00 -2.4696021092527612e-01  4.3214680988577587e+00 1.0373113224996640e+00 -2.3640340110626284e-01  4.2300439084677892e+00 1.0378859895027253e+00 -2.2565609234881034e-01  4.1383237581977959e+00 1.0378895308601805e+00 -2.1600663677961285e-01  4.0463622255838665e+00 1.0379336503160808e+00 -2.0592085625476222e-01  3.9544488981406940e+00 1.0374491916727904e+00 -1.9572783561639806e-01  3.8625462177880800e+00 1.0380315608192534e+00 -1.8639389221196265e-01  3.7708414837243591e+00 1.0378604031808956e+00 -1.7750539854162259e-01  3.6792426638057347e+00 1.0378886267051139e+00 -1.6891919753058993e-01  3.5872659841425913e+00 1.0386126032667504e+00 -1.6070213973211309e-01  3.4953986712627612e+00 1.0378574409955261e+00 -1.5234089349694543e-01  3.4032846743819842e+00 1.0375832909128546e+00 -1.4419435992009880e-01  3.3113391754892212e+00 1.0378922838203737e+00 -1.3673320282071560e-01  3.2193663100573855e+00 1.0374794054042638e+00 -1.2897065869281482e-01  3.1273669071225267e+00 1.0361637048682584e+00 -1.2103327443715280e-01  3.0355286946302655e+00 1.0364137366243211e+00 -1.1474884853530545e-01  2.9436099657848724e+00 1.0359282777886827e+00 -1.0793347737277990e-01  2.8517828525201341e+00 1.0362936458986967e+00 -1.0118919655470898e-01  2.7599973282756478e+00 1.0363523020732850e+00 -9.4354096443569929e-02  2.6679941430232357e+00 1.0364021684000164e+00 -8.7547458716955753e-02  2.5759000349887935e+00 1.0364134528672804e+00 -8.1155729020834649e-02  2.4839223965194592e+00 1.0367897391482614e+00 -7.5449792110867928e-02  2.3920009269335178e+00 1.0368401410668913e+00 -6.9627923899465205e-02  2.3000227775702560e+00 1.0369375054591068e+00 -6.3889561554375404e-02  2.2081770520539825e+00 1.0364853607243829e+00 -5.8275296519938097e-02  2.1163778158470685e+00 1.0364482429519162e+00 -5.3409748321410905e-02  2.0245815828765794e+00 1.0369722221018078e+00 -4.8734100182248094e-02  1.9324909241573562e+00 1.0369719098437458e+00 -4.4111159625559483e-02  1.8403626598001657e+00 1.0365553712487143e+00 -3.9048865853206077e-02  1.7483802591489266e+00 1.0372185266629730e+00 -3.4952266557062558e-02  1.6562160694273045e+00 1.0375948498890331e+00 -3.0798419669576488e-02  1.5641691015383514e+00 1.0365646958832999e+00 -2.6368951968317161e-02  1.4721331166873222e+00 1.0367111899820929e+00 -2.3155238700079177e-02  1.3802948544988201e+00 1.0365283546037529e+00 -2.0203094475565366e-02  1.2883969205388466e+00 1.0366843501039325e+00 -1.7119690857968380e-02  1.1964754595826386e+00 1.0363973277052634e+00 -1.3629294189630672e-02  1.1045441230941668e+00 1.0371441328133375e+00 -1.1418504754484774e-02  1.0125696849137436e+00 1.0373176153862427e+00 -9.1142366784778828e-03  9.2053061080016008e-01 1.0372575868473031e+00 -6.9030331091106947e-03  8.2835229778696251e-01 1.0369516879513390e+00 -5.0925925031687158e-03  7.3630819887190646e-01 1.0367270619616380e+00 -3.7654273784669492e-03  6.4414064875205723e-01 1.0366620599981671e+00 -2.5962926467828565e-03  5.5187175746811135e-01 1.0361776331209833e+00 -1.1546300413804438e-03  4.5987269553609933e-01 1.0357047909041783e+00 -3.8030134911345450e-04  3.6781384993859179e-01 1.0359191672610131e+00 -4.4378533837217493e-04  2.7578794168007775e-01 1.0347714398884318e+00 -9.7082568288761430e-05  1.8379420352624698e-01 1.0344774706954838e+00 0.0000000000000000e+00  9.1848320402903819e-02 1.0335449296496761e+00 0.0000000000000000e+00  9.1388901429166385e+00 9.2180123038294393e-01 -1.2125119340526602e+00  9.1559852756285505e+00 7.4389499177411933e-01 -1.1923965004012138e+00  9.1756164426620863e+00 5.6835886303163596e-01 -1.1764988995514816e+00  9.1843260286994592e+00 3.7625873015485722e-01 -1.1694315591920668e+00  9.1968686645052706e+00 1.8613821606937123e-01 -1.1596507784025680e+00  9.1158440178684152e+00 0.0000000000000000e+00 -1.1208648106900090e+00  9.0252835162772715e+00 0.0000000000000000e+00 -1.0938428883294553e+00  8.9329382121300469e+00 0.0000000000000000e+00 -1.0628700116277388e+00  8.8394323049584163e+00 0.0000000000000000e+00 -1.0374164458228645e+00  8.7471669127708829e+00 0.0000000000000000e+00 -1.0166305297174838e+00  8.6534595994356209e+00 0.0000000000000000e+00 -9.9302394214944367e-01  8.5613527514757308e+00 0.0000000000000000e+00 -9.7355933451502852e-01  8.4675382605046394e+00 0.0000000000000000e+00 -9.5467110332928728e-01  8.3732185627746460e+00 0.0000000000000000e+00 -9.3153394993834737e-01  8.2800738418203021e+00 0.0000000000000000e+00 -9.1596697827239870e-01  8.1867068713546036e+00 0.0000000000000000e+00 -8.9812536484703587e-01  8.0940562163216292e+00 0.0000000000000000e+00 -8.7784555008263332e-01  8.0012311494577393e+00 0.0000000000000000e+00 -8.5693450253552206e-01  7.9075397515153885e+00 0.0000000000000000e+00 -8.3620195047700452e-01  7.8152043527617314e+00 0.0000000000000000e+00 -8.2069520104124893e-01  7.7233145698382071e+00 0.0000000000000000e+00 -8.0285902537694376e-01  7.6314658243129925e+00 0.0000000000000000e+00 -7.8307963229380440e-01  7.5380710813939835e+00 0.0000000000000000e+00 -7.6240128340854896e-01  7.4450659088314124e+00 0.0000000000000000e+00 -7.4824674743306119e-01  7.3531827535907359e+00 0.0000000000000000e+00 -7.2868138947937344e-01  7.2606519792025477e+00 0.0000000000000000e+00 -7.0894892710886159e-01  7.1694925229602200e+00 0.0000000000000000e+00 -6.9306578524894524e-01  7.0771648067408055e+00 0.0000000000000000e+00 -6.7282625417093078e-01  6.9846162609861269e+00 0.0000000000000000e+00 -6.5728176355210155e-01  6.8934647292099571e+00 0.0000000000000000e+00 -6.3988563313520241e-01  6.8017231149032229e+00 0.0000000000000000e+00 -6.2122947237161497e-01  6.7091798740182540e+00 0.0000000000000000e+00 -6.0318602525906340e-01  6.6169348091677840e+00 0.0000000000000000e+00 -5.8920199880466584e-01  6.5248686953153427e+00 0.0000000000000000e+00 -5.7179379203459790e-01  6.4328156005463333e+00 0.0000000000000000e+00 -5.5736986514192655e-01  6.3421008820034315e+00 0.0000000000000000e+00 -5.4269144553904780e-01  6.2506486957147969e+00 0.0000000000000000e+00 -5.2604562819897760e-01  6.1585093750531179e+00 0.0000000000000000e+00 -5.0683834002220507e-01  6.0661712365384730e+00 0.0000000000000000e+00 -4.9358621919215334e-01  5.9737476667635221e+00 0.0000000000000000e+00 -4.7555634560818538e-01  5.8826641614966411e+00 0.0000000000000000e+00 -4.6428319920803474e-01  5.7906262437815688e+00 0.0000000000000000e+00 -4.4799287108200569e-01  5.6976249965658470e+00 0.0000000000000000e+00 -4.3221857402661656e-01  5.6056063432699652e+00 0.0000000000000000e+00 -4.1991024799126808e-01  5.5142437423645267e+00 0.0000000000000000e+00 -4.0392418547739783e-01  5.4233328435985717e+00 0.0000000000000000e+00 -3.9318277469761931e-01  5.3324382801030357e+00 0.0000000000000000e+00 -3.7811066468749760e-01  5.2400385700794008e+00 0.0000000000000000e+00 -3.6313577088213717e-01  5.1493614447041560e+00 0.0000000000000000e+00 -3.5389503404369166e-01  5.0581188928143472e+00 0.0000000000000000e+00 -3.4105283729876429e-01  4.9658556505769447e+00 0.0000000000000000e+00 -3.2544531193349985e-01  4.8741670814599134e+00 0.0000000000000000e+00 -3.1581858681166841e-01  4.7818709331563074e+00 0.0000000000000000e+00 -3.0295416252789004e-01  4.6893178405663649e+00 0.0000000000000000e+00 -2.9345412525562842e-01  4.5979331725902464e+00 0.0000000000000000e+00 -2.8191596661073587e-01  4.5061926481832799e+00 0.0000000000000000e+00 -2.7173936492486855e-01  4.4139299083290195e+00 0.0000000000000000e+00 -2.5843520039246759e-01  4.3227192096656415e+00 0.0000