<?xml version="1.0"?>
<VTKFile type="UnstructuredGrid"  version="0.1"  >
<UnstructuredGrid>
<Piece  NumberOfPoints="3069" NumberOfCells="12882">
<Points>
<DataArray  type="Float64"  NumberOfComponents="3"  format="ascii">0 0 0  0 0 4  0 5.65685415 0  50 0 4  50 5.65685415 0  50 0 0  0 0 1  0 0 2  0 0 3  0 1.04967844 3.90746784  0 2.0669806 3.632725  0 3.02052855 3.18424606  0 3.88091111 2.5758636  0 4.62159061 1.82634306  0 5.21972132 0.958802283  0 4.71404505 0  0 3.77123618 0  0 2.82842708 0  0 1.88561809 0  0 0.942809045 0  0.5 0 4  1 0 4  1.5 0 4  2 0 4  2.5 0 4  3 0 4  3.5 0 4  4 0 4  4.5 0 4  5 0 4  5.5 0 4  6 0 4  6.5 0 4  7 0 4  7.5 0 4  8 0 4  8.5 0 4  9 0 4  9.5 0 4  10 0 4  10.5 0 4  11 0 4  11.5 0 4  12 0 4  12.5 0 4  13 0 4  13.5 0 4  14 0 4  14.5 0 4  15 0 4  15.5 0 4  16 0 4  16.5 0 4  17 0 4  17.5 0 4  18 0 4  18.5 0 4  19 0 4  19.5 0 4  20 0 4  20.5 0 4  21 0 4  21.5 0 4  22 0 4  22.5 0 4  23 0 4  23.5 0 4  24 0 4  24.5 0 4  25 0 4  25.5 0 4  26 0 4  26.5 0 4  27 0 4  27.5 0 4  28 0 4  28.5 0 4  29 0 4  29.5 0 4  30 0 4  30.5 0 4  31 0 4  31.5 0 4  32 0 4  32.5 0 4  33 0 4  33.5 0 4  34 0 4  34.5 0 4  35 0 4  35.5 0 4  36 0 4  36.5 0 4  37 0 4  37.5 0 4  38 0 4  38.5 0 4  39 0 4  39.5 0 4  40 0 4  40.5 0 4  41 0 4  41.5 0 4  42 0 4  42.5 0 4  43 0 4  43.5 0 4  44 0 4  44.5 0 4  45 0 4  45.5 0 4  46 0 4  46.5 0 4  47 0 4  47.5 0 4  48 0 4  48.5 0 4  49 0 4  49.5 0 4  50 1.04967844 3.90746784  50 2.0669806 3.632725  50 3.02052855 3.18424606  50 3.88091111 2.5758636  50 4.62159061 1.82634306  50 5.21972132 0.958802283  49.5 5.65685415 0  49 5.65685415 0  48.5 5.65685415 0  48 5.65685415 0  47.5 5.65685415 0  47 5.65685415 0  46.5 5.65685415 0  46 5.65685415 0  45.5 5.65685415 0  45 5.65685415 0  44.5 5.65685415 0  44 5.65685415 0  43.5 5.65685415 0  43 5.65685415 0  42.5 5.65685415 0  42 5.65685415 0  41.5 5.65685415 0  41 5.65685415 0  40.5 5.65685415 0  40 5.65685415 0  39.5 5.65685415 0  39 5.65685415 0  38.5 5.65685415 0  38 5.65685415 0  37.5 5.65685415 0  37 5.65685415 0  36.5 5.65685415 0  36 5.65685415 0  35.5 5.65685415 0  35 5.65685415 0  34.5 5.65685415 0  34 5.65685415 0  33.5 5.65685415 0  33 5.65685415 0  32.5 5.65685415 0  32 5.65685415 0  31.5 5.65685415 0  31 5.65685415 0  30.5 5.65685415 0  30 5.65685415 0  29.5 5.65685415 0  29 5.65685415 0  28.5 5.65685415 0  28 5.65685415 0  27.5 5.65685415 0  27 5.65685415 0  26.5 5.65685415 0  26 5.65685415 0  25.5 5.65685415 0  25 5.65685415 0  24.5 5.65685415 0  24 5.65685415 0  23.5 5.65685415 0  23 5.65685415 0  22.5 5.65685415 0  22 5.65685415 0  21.5 5.65685415 0  21 5.65685415 0  20.5 5.65685415 0  20 5.65685415 0  19.5 5.65685415 0  19 5.65685415 0  18.5 5.65685415 0  18 5.65685415 0  17.5 5.65685415 0  17 5.65685415 0  16.5 5.65685415 0  16 5.65685415 0  15.5 5.65685415 0  15 5.65685415 0  14.5 5.65685415 0  14 5.65685415 0  13.5 5.65685415 0  13 5.65685415 0  12.5 5.65685415 0  12 5.65685415 0  11.5 5.65685415 0  11 5.65685415 0  10.5 5.65685415 0  10 5.65685415 0  9.5 5.65685415 0  9 5.65685415 0  8.5 5.65685415 0  8 5.65685415 0  7.5 5.65685415 0  7 5.65685415 0  6.5 5.65685415 0  6 5.65685415 0  5.5 5.65685415 0  5 5.65685415 0  4.5 5.65685415 0  4 5.65685415 0  3.5 5.65685415 0  3 5.65685415 0  2.5 5.65685415 0  2 5.65685415 0  1.5 5.65685415 0  1 5.65685415 0  0.5 5.65685415 0  50 4.71404505 0  50 3.77123618 0  50 2.82842708 0  50 1.88561809 0  50 0.942809045 0  49.5 0 0  49 0 0  48.5 0 0  48 0 0  47.5 0 0  47 0 0  46.5 0 0  46 0 0  45.5 0 0  45 0 0  44.5 0 0  44 0 0  43.5 0 0  43 0 0  42.5 0 0  42 0 0  41.5 0 0  41 0 0  40.5 0 0  40 0 0  39.5 0 0  39 0 0  38.5 0 0  38 0 0  37.5 0 0  37 0 0  36.5 0 0  36 0 0  35.5 0 0  35 0 0  34.5 0 0  34 0 0  33.5 0 0  33 0 0  32.5 0 0  32 0 0  31.5 0 0  31 0 0  30.5 0 0  30 0 0  29.5 0 0  29 0 0  28.5 0 0  28 0 0  27.5 0 0  27 0 0  26.5 0 0  26 0 0  25.5 0 0  25 0 0  24.5 0 0  24 0 0  23.5 0 0  23 0 0  22.5 0 0  22 0 0  21.5 0 0  21 0 0  20.5 0 0  20 0 0  19.5 0 0  19 0 0  18.5 0 0  18 0 0  17.5 0 0  17 0 0  16.5 0 0  16 0 0  15.5 0 0  15 0 0  14.5 0 0  14 0 0  13.5 0 0  13 0 0  12.5 0 0  12 0 0  11.5 0 0  11 0 0  10.5 0 0  10 0 0  9.5 0 0  9 0 0  8.5 0 0  8 0 0  7.5 0 0  7 0 0  6.5 0 0  6 0 0  5.5 0 0  5 0 0  4.5 0 0  4 0 0  3.5 0 0  3 0 0  2.5 0 0  2 0 0  1.5 0 0  1 0 0  0.5 0 0  50 0 1  50 0 2  50 0 3  0 2.33524275 0.893602192  0 2.87561393 1.93323028  0 4.2367816 0.876864135  0 2.00050235 2.65534091  0 0.981494486 2.34323239  0 3.78543234 1.61830366  0 3.30545568 0.887000024  0 0.812916458 1.58408713  0 1.71948838 1.71268857  0 1.28267908 0.8650629520000001  0 1.21973121 3.10775328  0.5 5.21972132 0.958802223  0.5 4.62159061 1.82634306  0.5 3.88091111 2.5758636  0.5 3.02052855 3.18424606  0.5 2.0669806 3.632725  0.5 1.04967844 3.90746784  1 5.21972132 0.958802223  1 4.62159061 1.82634306  1 3.88091111 2.5758636  1 3.02052855 3.18424606  1 2.0669806 3.632725  1 1.04967844 3.90746784  1.5 5.21972132 0.958802223  1.5 4.62159061 1.82634306  1.5 3.88091111 2.5758636  1.5 3.02052855 3.18424606  1.5 2.0669806 3.632725  1.5 1.04967844 3.90746784  2 5.21972132 0.958802223  2 4.62159061 1.82634306  2 3.88091111 2.5758636  2 3.02052855 3.18424606  2 2.0669806 3.632725  2 1.04967844 3.90746784  2.5 5.21972132 0.958802223  2.5 4.62159061 1.82634306  2.5 3.88091111 2.5758636  2.5 3.02052855 3.18424606  2.5 2.0669806 3.632725  2.5 1.04967844 3.90746784  3 5.21972132 0.958802223  3 4.62159061 1.82634306  3 3.88091111 2.5758636  3 3.02052855 3.18424606  3 2.0669806 3.632725  3 1.04967844 3.90746784  3.5 5.21972132 0.958802223  3.5 4.62159061 1.82634306  3.5 3.88091111 2.5758636  3.5 3.02052855 3.18424606  3.5 2.0669806 3.632725  3.5 1.04967844 3.90746784  4 5.21972132 0.958802223  4 4.62159061 1.82634306  4 3.88091111 2.5758636  4 3.02052855 3.18424606  4 2.0669806 3.632725  4 1.04967844 3.90746784  4.5 5.21972132 0.958802223  4.5 4.62159061 1.82634306  4.5 3.88091111 2.5758636  4.5 3.02052855 3.18424606  4.5 2.0669806 3.632725  4.5 1.04967844 3.90746784  5 5.21972132 0.958802223  5 4.62159061 1.82634306  5 3.88091111 2.5758636  5 3.02052855 3.18424606  5 2.0669806 3.632725  5 1.04967844 3.90746784  5.5 5.21972132 0.958802223  5.5 4.62159061 1.82634306  5.5 3.88091111 2.5758636  5.5 3.02052855 3.18424606  5.5 2.0669806 3.632725  5.5 1.04967844 3.90746784  6 5.21972132 0.958802223  6 4.62159061 1.82634306  6 3.88091111 2.5758636  6 3.02052855 3.18424606  6 2.0669806 3.632725  6 1.04967844 3.90746784  6.5 5.21972132 0.958802223  6.5 4.62159061 1.82634306  6.5 3.88091111 2.5758636  6.5 3.02052855 3.18424606  6.5 2.0669806 3.632725  6.5 1.04967844 3.90746784  7 5.21972132 0.958802223  7 4.62159061 1.82634306  7 3.88091111 2.5758636  7 3.02052855 3.18424606  7 2.0669806 3.632725  7 1.04967844 3.90746784  7.5 5.21972132 0.958802223  7.5 4.62159061 1.82634306  7.5 3.88091111 2.5758636  7.5 3.02052855 3.18424606  7.5 2.0669806 3.632725  7.5 1.04967844 3.90746784  8 5.21972132 0.958802223  8 4.62159061 1.82634306  8 3.88091111 2.5758636  8 3.02052855 3.18424606  8 2.0669806 3.632725  8 1.04967844 3.90746784  8.5 5.21972132 0.958802223  8.5 4.62159061 1.82634306  8.5 3.88091111 2.5758636  8.5 3.02052855 3.18424606  8.5 2.0669806 3.632725  8.5 1.04967844 3.90746784  9 5.21972132 0.958802223  9 4.62159061 1.82634306  9 3.88091111 2.5758636  9 3.02052855 3.18424606  9 2.0669806 3.632725  9 1.04967844 3.90746784  9.5 5.21972132 0.958802223  9.5 4.62159061 1.82634306  9.5 3.88091111 2.5758636  9.5 3.02052855 3.18424606  9.5 2.0669806 3.632725  9.5 1.04967844 3.90746784  10 5.21972132 0.958802223  10 4.62159061 1.82634306  10 3.88091111 2.5758636  10 3.02052855 3.18424606  10 2.0669806 3.632725  10 1.04967844 3.90746784  10.5 5.21972132 0.958802223  10.5 4.62159061 1.82634306  10.5 3.88091111 2.5758636  10.5 3.02052855 3.18424606  10.5 2.0669806 3.632725  10.5 1.04967844 3.90746784  11 5.21972132 0.958802223  11 4.62159061 1.82634306  11 3.88091111 2.5758636  11 3.02052855 3.18424606  11 2.0669806 3.632725  11 1.04967844 3.90746784  11.5 5.21972132 0.958802223  11.5 4.62159061 1.82634306  11.5 3.88091111 2.5758636  11.5 3.02052855 3.18424606  11.5 2.0669806 3.632725  11.5 1.04967844 3.90746784  12 5.21972132 0.958802223  12 4.62159061 1.82634306  12 3.88091111 2.5758636  12 3.02052855 3.18424606  12 2.0669806 3.632725  12 1.04967844 3.90746784  12.5 5.21972132 0.958802223  12.5 4.62159061 1.82634306  12.5 3.88091111 2.5758636  12.5 3.02052855 3.18424606  12.5 2.0669806 3.632725  12.5 1.04967844 3.90746784  13 5.21972132 0.958802223  13 4.62159061 1.82634306  13 3.88091111 2.5758636  13 3.02052855 3.18424606  13 2.0669806 3.632725  13 1.04967844 3.90746784  13.5 5.21972132 0.958802223  13.5 4.62159061 1.82634306  13.5 3.88091111 2.5758636  13.5 3.02052855 3.18424606  13.5 2.0669806 3.632725  13.5 1.04967844 3.90746784  14 5.21972132 0.958802223  14 4.62159061 1.82634306  14 3.88091111 2.5758636  14 3.02052855 3.18424606  14 2.0669806 3.632725  14 1.04967844 3.90746784  14.5 5.21972132 0.958802223  14.5 4.62159061 1.82634306  14.5 3.88091111 2.5758636  14.5 3.02052855 3.18424606  14.5 2.0669806 3.632725  14.5 1.04967844 3.90746784  15 5.21972132 0.958802223  15 4.62159061 1.82634306  15 3.88091111 2.5758636  15 3.02052855 3.18424606  15 2.0669806 3.632725  15 1.04967844 3.90746784  15.5 5.21972132 0.958802223  15.5 4.62159061 1.82634306  15.5 3.88091111 2.5758636  15.5 3.02052855 3.18424606  15.5 2.0669806 3.632725  15.5 1.04967844 3.90746784  16 5.21972132 0.958802223  16 4.62159061 1.82634306  16 3.88091111 2.5758636  16 3.02052855 3.18424606  16 2.0669806 3.632725  16 1.04967844 3.90746784  16.5 5.21972132 0.958802223  16.5 4.62159061 1.82634306  16.5 3.88091111 2.5758636  16.5 3.02052855 3.18424606  16.5 2.0669806 3.632725  16.5 1.04967844 3.90746784  17 5.21972132 0.958802223  17 4.62159061 1.82634306  17 3.88091111 2.5758636  17 3.02052855 3.18424606  17 2.0669806 3.632725  17 1.04967844 3.90746784  17.5 5.21972132 0.958802223  17.5 4.62159061 1.82634306  17.5 3.88091111 2.5758636  17.5 3.02052855 3.18424606  17.
[...]
<PointData  Vectors="f_261141-0"> 
<DataArray  type="Float64"  Name="f_261141-0"  NumberOfComponents="3" format="ascii">0.0000000000000000e+00 0.0000000000000000e+00 0.0000000000000000e+00  0.0000000000000000e+00 0.0000000000000000e+00 -1.2039260169521717e-05  0.0000000000000000e+00 1.2392298573027017e-04 0.0000000000000000e+00  4.3226892203959058e-05 0.0000000000000000e+00 3.2443700444883161e-03  5.6933995780180996e-04 2.0862614478341565e-04 3.2702191581275540e-03  7.5938275642407199e-04 0.0000000000000000e+00 3.3434817642114443e-03  0.0000000000000000e+00 0.0000000000000000e+00 7.9757113628790068e-05  0.0000000000000000e+00 0.0000000000000000e+00 7.0384656831540163e-05  0.0000000000000000e+00 0.0000000000000000e+00 3.9499092725190642e-06  0.0000000000000000e+00 -1.0417030503233263e-04 -1.0099090189865353e-04  0.0000000000000000e+00 -2.3805190948030675e-05 -3.1676163274205475e-05  0.0000000000000000e+00 -2.7784560095399735e-06 7.8123970281049310e-05  0.0000000000000000e+00 2.8200132913210275e-05 7.3734292213914059e-05  0.0000000000000000e+00 -6.6420837745464692e-05 1.6529934669328556e-04  0.0000000000000000e+00 -1.0083738372446604e-04 1.4746042387395135e-04  0.0000000000000000e+00 8.8635292561608397e-05 0.0000000000000000e+00  0.0000000000000000e+00 1.8545856596531335e-04 0.0000000000000000e+00  0.0000000000000000e+00 1.1156446036691575e-04 0.0000000000000000e+00  0.0000000000000000e+00 4.6719461837840640e-05 0.0000000000000000e+00  0.0000000000000000e+00 -2.1144104482047935e-05 0.0000000000000000e+00  2.4139258469704099e-05 0.0000000000000000e+00 -2.8089970624971478e-05  3.7583775473258140e-05 0.0000000000000000e+00 -8.2974801248310629e-05  1.3016175060921443e-05 0.0000000000000000e+00 -1.0079427370134567e-04  1.9474454652735121e-05 0.0000000000000000e+00 -9.3198217816822966e-05  3.3642837394149981e-05 0.0000000000000000e+00 -9.3818796092760875e-05  1.2199979249812541e-05 0.0000000000000000e+00 -1.0154253467500318e-04  6.2076454179667106e-06 0.0000000000000000e+00 -9.3218577597527168e-05  -2.2030522499801140e-05 0.0000000000000000e+00 -1.0541680001513660e-04  -2.8157656752692175e-05 0.0000000000000000e+00 -8.0004832932043475e-05  -4.0430775238859372e-05 0.0000000000000000e+00 3.0659982927675727e-05  -3.2992776047196033e-05 0.0000000000000000e+00 9.0434092468683303e-06  -1.1621600750399897e-05 0.0000000000000000e+00 -3.1058005478329846e-05  -1.6142155084799009e-05 0.0000000000000000e+00 5.2255367473001972e-05  -3.1442901011727814e-05 0.0000000000000000e+00 7.0295505193425291e-05  4.2647523546713032e-06 0.0000000000000000e+00 7.0642904569737032e-05  -1.5060151704307624e-05 0.0000000000000000e+00 1.0507077058859709e-04  1.3222065049633087e-05 0.0000000000000000e+00 1.2447808372018378e-04  9.9199973273586152e-06 0.0000000000000000e+00 1.5333167951231915e-04  1.9659165113240296e-05 0.0000000000000000e+00 1.1386566469703639e-04  2.3599518148251920e-05 0.0000000000000000e+00 1.5871767019496726e-04  9.3039216991988317e-06 0.0000000000000000e+00 1.2077924430982782e-04  4.0595601579196804e-05 0.0000000000000000e+00 1.6819993019984262e-04  2.5266436759345445e-05 0.0000000000000000e+00 1.3593015515646272e-04  3.3535958437780838e-05 0.0000000000000000e+00 1.7262191167155246e-04  4.6530032395256030e-05 0.0000000000000000e+00 2.0063390717646755e-04  3.4481781998667946e-05 0.0000000000000000e+00 2.6069756665163686e-04  4.1169075104823970e-06 0.0000000000000000e+00 3.1266930627081352e-04  8.7764955758611541e-06 0.0000000000000000e+00 2.8082201037995445e-04  1.2438406707007450e-05 0.0000000000000000e+00 3.7043424956745464e-04  -4.1880757070365658e-07 0.0000000000000000e+00 3.7549979479771701e-04  3.2838195695390658e-05 0.0000000000000000e+00 3.0800770251489587e-04  3.7740583930104202e-05 0.0000000000000000e+00 3.3798684039113149e-04  2.0203069222163411e-05 0.0000000000000000e+00 3.5139726262724226e-04  1.4901592330857450e-05 0.0000000000000000e+00 3.6292114424083758e-04  5.7421310007935261e-05 0.0000000000000000e+00 3.9398173399642593e-04  7.8711355331246197e-05 0.0000000000000000e+00 3.4942401879147503e-04  6.5698280933608130e-05 0.0000000000000000e+00 4.5089574217599090e-04  7.9943884143046580e-05 0.0000000000000000e+00 4.3753908070824019e-04  8.2841896718467250e-05 0.0000000000000000e+00 4.9869513545361269e-04  1.1217452021710515e-04 0.0000000000000000e+00 4.9735390556881771e-04  1.4130644594047075e-04 0.0000000000000000e+00 4.8793483689248184e-04  9.5494585219607452e-05 0.0000000000000000e+00 4.9945937569707247e-04  1.0008554383271266e-04 0.0000000000000000e+00 5.0483875935332595e-04  6.8509177799679674e-05 0.0000000000000000e+00 5.7058603298987699e-04  1.1570245756006128e-04 0.0000000000000000e+00 4.9711392584608511e-04  1.1094000329280404e-04 0.0000000000000000e+00 5.4224809735978110e-04  8.8851530189816157e-05 0.0000000000000000e+00 5.5606926224076271e-04  5.7126967601624965e-05 0.0000000000000000e+00 6.1311742537420401e-04  6.6952227408288454e-05 0.0000000000000000e+00 6.1769308724122964e-04  6.1482349132286658e-05 0.0000000000000000e+00 6.5913409970462359e-04  6.2642345240464771e-05 0.0000000000000000e+00 7.0605625662664641e-04  4.9852433182025213e-05 0.0000000000000000e+00 7.6922128430793532e-04  6.7172490612195929e-05 0.0000000000000000e+00 8.6268208394060276e-04  6.1667863416560082e-05 0.0000000000000000e+00 8.6740701363764315e-04  8.6137607430567345e-05 0.0000000000000000e+00 8.5117036143223207e-04  7.4372485841432229e-05 0.0000000000000000e+00 8.5751805540211393e-04  9.1384539865577513e-05 0.0000000000000000e+00 8.6380104373368657e-04  1.0824724653319606e-04 0.0000000000000000e+00 9.0672790395485842e-04  6.0185432558858755e-05 0.0000000000000000e+00 9.6488425136058301e-04  4.9424153830503741e-05 0.0000000000000000e+00 9.5677306424363250e-04  3.4065533724968410e-05 0.0000000000000000e+00 9.9543596163408098e-04  3.8742870666235360e-05 0.0000000000000000e+00 1.0287396549570965e-03  5.8909561229358222e-05 0.0000000000000000e+00 1.0536314523414058e-03  6.8991334546542870e-05 0.0000000000000000e+00 1.1272551660340096e-03  3.6553436029649107e-05 0.0000000000000000e+00 1.2265605365709194e-03  2.7126962249021035e-05 0.0000000000000000e+00 1.2713875048216208e-03  3.1234467099432348e-05 0.0000000000000000e+00 1.3199159656733228e-03  5.1703327257776606e-05 0.0000000000000000e+00 1.3329924419745219e-03  3.8776524439075116e-05 0.0000000000000000e+00 1.3771370568170297e-03  4.1795831034323763e-05 0.0000000000000000e+00 1.4532112363731099e-03  1.7985468069626984e-05 0.0000000000000000e+00 1.5008277199923487e-03  3.1543725334080571e-05 0.0000000000000000e+00 1.5427981777981724e-03  4.9351175133790265e-05 0.0000000000000000e+00 1.6470372880084932e-03  6.7329668613913386e-05 0.0000000000000000e+00 1.6680017743250916e-03  7.7613700234143988e-05 0.0000000000000000e+00 1.6782097144820193e-03  8.9510895023945638e-05 0.0000000000000000e+00 1.7535869743918273e-03  8.0338240447762221e-05 0.0000000000000000e+00 1.8268495433853421e-03  7.3940837335892138e-05 0.0000000000000000e+00 1.8273758457580435e-03  5.8721134864839168e-05 0.0000000000000000e+00 1.9322094154751628e-03  5.2540150630595611e-05 0.0000000000000000e+00 1.9847514822734103e-03  8.7153156699483234e-05 0.0000000000000000e+00 2.0813188962214004e-03  7.9301980428328969e-05 0.0000000000000000e+00 2.1260044923657427e-03  8.1332550464583895e-05 0.0000000000000000e+00 2.1823150950142298e-03  8.5088178242418677e-05 0.0000000000000000e+00 2.2791865324205082e-03  9.0368065619937570e-05 0.0000000000000000e+00 2.2952930881804424e-03  7.1682408241364036e-05 0.0000000000000000e+00 2.3474642991161989e-03  9.0680944537523396e-05 0.0000000000000000e+00 2.4159055855808523e-03  1.2422485252016303e-04 0.0000000000000000e+00 2.4896674183297034e-03  1.2331491936323676e-04 0.0000000000000000e+00 2.4471304564633060e-03  1.1157365050049124e-04 0.0000000000000000e+00 2.5166016829493289e-03  6.0018585776123761e-05 0.0000000000000000e+00 2.5845394105638441e-03  2.5375874294074065e-05 0.0000000000000000e+00 2.6999845516962225e-03  3.6248310913571170e-05 0.0000000000000000e+00 2.7337592987129503e-03  2.9030687362823863e-05 0.0000000000000000e+00 2.8302841495541462e-03  4.0579086525394413e-05 0.0000000000000000e+00 2.8571420664018580e-03  1.9941166655924420e-05 0.0000000000000000e+00 2.9419603666426711e-03  3.6465526906023198e-05 0.0000000000000000e+00 3.0178864503924256e-03  4.5858499358847757e-05 0.0000000000000000e+00 3.0918636843520223e-03  4.4732327246696942e-05 0.0000000000000000e+00 3.1698623181113626e-03  1.2017169466764623e-04 8.4705609015511747e-06 3.2139000980597916e-03  1.6786936265022546e-04 -7.8983815700514169e-06 3.2203481362575899e-03  2.0009627401837220e-04 -3.0851590984842965e-05 3.2117735073428993e-03  3.6183683063122280e-04 -3.4838138382916333e-05 3.2619354989792252e-03  3.5899066853959538e-04 2.6677297180987950e-05 3.2268858041672355e-03  3.6903256017464624e-04 -1.0167391354414247e-05 3.2286037567959532e-03  5.3608081164419378e-04 1.9027846550679573e-04 3.1710702793281242e-03  5.3003304722091561e-04 1.5031304979282352e-04 3.0539921401930912e-03  5.3595115724229731e-04 8.3184908734396646e-05 3.0186649227491617e-03  5.2851211589852859e-04 1.1572028410460505e-04 2.9208403227147079e-03  5.5079069952972712e-04 1.6108905014487442e-04 2.8663046589915905e-03  5.6214113717047729e-04 1.3282957197996770e-04 2.7987005743777497e-03  5.5495009564404435e-04 1.2824076411563484e-04 2.7094681785973305e-03  5.9827075134297138e-04 1.5240214981557991e-04 2.6401579640186767e-03  5.9644944601096588e-04 1.9300873166983365e-04 2.6172459880366757e-03  5.9089218217225686e-04 2.5960481763152523e-04 2.5612706279948927e-03  5.7282479204365353e-04 2.5340794312162564e-04 2.5077932696723738e-03  5.5587160286273314e-04 2.0151225582481372e-04 2.4878395406145114e-03  5.6351909876740090e-04 2.0868335976895514e-04 2.3824520346378939e-03  5.6685177252413261e-04 1.6541708013704070e-04 2.3030141463439326e-03  4.9801702202808076e-04 1.3155375865399853e-04 2.3072599702137035e-03  5.5213244397387632e-04 1.8040290904704348e-04 2.2823736430066946e-03  5.2809508998176641e-04 1.8788159890682215e-04 2.2284372327573136e-03  4.9907307523770381e-04 1.7715848357736946e-04 2.1409206708033323e-03  4.7058290152802513e-04 1.3453581740967995e-04 2.0947731757111148e-03  4.5804772751913239e-04 1.2683774510200918e-04 2.0571200884365341e-03  4.4154557644677622e-04 1.8000928562739060e-04 2.0048359787777515e-03  4.8166682752131531e-04 1.5338085741348223e-04 1.9412493744544700e-03  4.8587857012429247e-04 1.7805406290759753e-04 1.9037062246539619e-03  4.7963704466564915e-04 1.8456995535784409e-04 1.8655862538443590e-03  4.6947019870978933e-04 1.7300378659483993e-04 1.8433326633038494e-03  4.7471997973842187e-04 2.0831674064456421e-04 1.7460172153747006e-03  4.7863264107567388e-04 1.4384447298657562e-04 1.6594407701060834e-03  4.6319887803320946e-04 9.6825114289048083e-05 1.6332267626927273e-03  4.7147314086279997e-04 1.2873043169195540e-04 1.5229343645518042e-03  4.4578760804600103e-04 7.3147315327417643e-05 1.4871138627234695e-03  4.5099828873671372e-04 1.2749227797226485e-04 1.4126651561408863e-03  4.5450356240099257e-04 1.3935541388947792e-04 1.3781438812199478e-03  4.5290252304145735e-04 1.3822456089387526e-04 1.3062165607684465e-03  4.4876581702367468e-04 1.1940186705890881e-04 1.2400289499363843e-03  4.3344720936073957e-04 1.9775070295702021e-04 1.1797986912551750e-03  4.2104589734886122e-04 1.5455037278647597e-04 1.1554987728998646e-03  3.7685219377432255e-04 1.7454542338767493e-04 1.1344166488841587e-03  3.7831892935652744e-04 1.4543280800176643e-04 1.0695991895444013e-03  3.8731893071904989e-04 1.1791652417658011e-04 1.0256777322174510e-03  3.5576585631827006e-04 9.4078193575768414e-05 9.5860140844928297e-04  3.6733285733447392e-04 8.6945655763200321e-05 9.0782755171960083e-04  3.5777458025843873e-04 8.9712424705115163e-05 8.5867497201036523e-04  3.8288428285643858e-04 1.1672059210812102e-04 7.9702473133494997e-04  3.7650418127223978e-04 9.8961550364253930e-05 8.2614574102684603e-04  3.6206883593204164e-04 1.5499683038398604e-04 8.0230737852236313e-04  3.4279236305444894e-04 1.2301745268884890e-04 7.4268628323145576e-04  3.2044571235302448e-04 1.3686081495201170e-04 6.9836693382588247e-04  3.0604186397632983e-04 1.1061919399516525e-04 6.3027419531766038e-04  3.0648085495237515e-04 1.0441095905313506e-04 5.9657277968015797e-04  2.9130283291515569e-04 1.1446259225933802e-04 5.8258049968677066e-04  2.8164490143065078e-04 9.7319930604939471e-05 5.6905629535457421e-04  3.0671525488991462e-04 1.0779701489694126e-04 5.4715906847109758e-04  3.0252950187316982e-04 1.5933987587326244e-04 5.2125900308694123e-04  3.0314882598396389e-04 6.9262421093112882e-05 5.8227551967584168e-04  2.5581245620659009e-04 1.8712409062456571e-04 5.7116314472331359e-04  2.4691941049899586e-04 1.9913650962865591e-04 5.4817181962840201e-04  2.6692770104752285e-04 1.3629534817817952e-04 5.1373801091767076e-04  2.4157641659117927e-04 1.5192460153362757e-04 5.0259723140457587e-04  2.1999202308004364e-04 2.1111771188165587e-04 4.5491767092938881e-04  2.0547457313045922e-04 1.7487980510089772e-04 4.8926615544981180e-04  2.0307508881646397e-04 1.6141093353576569e-04 4.6798587597039916e-04  1.9399730087289098e-04 1.3558865815294869e-04 4.6396029516168207e-04  2.0840946959989979e-04 1.4665856809203764e-04 3.8268703896058990e-04  1.7159741816489765e-04 1.1646469508780557e-04 3.9774946780881434e-04  1.9797262643901238e-04 1.2009462306499663e-04 3.2206269472213395e-04  2.1982192415149882e-04 8.9083398975664071e-05 2.9679356050717540e-04  2.1100354738362050e-04 1.0114300475359841e-04 3.0169083035274936e-04  1.7886271782719928e-04 1.1154383866778456e-04 2.8298213970412428e-04  1.7060076418317575e-04 1.0846544007562385e-04 2.7694855541502680e-04  1.5991267749132518e-04 1.3055745060429092e-04 2.8930908859777432e-04  1.7536507817815479e-04 1.5647031715168596e-04 2.6399184743413544e-04  1.7277706999802768e-04 1.1942862106253557e-04 2.8220684280439248e-04  1.3205497893610901e-04 1.5046166194303062e-04 2.8204262668821985e-04  1.5777217682309453e-04 1.1341575178880071e-04 2.8085982723505818e-04  1.5600689148571189e-04 1.4891188892168200e-04 2.6482206433350918e-04  1.8031342579148994e-04 1.4036147267153733e-04 2.2638681166017104e-04  1.5179159741871484e-04 1.3868468599984531e-04 2.1286383006297738e-04  1.1833570749707721e-04 1.6300874384147582e-04 1.8770900132315970e-04  1.1207732098848764e-04 1.4092314726275558e-04 1.8763787133616275e-04  1.0019866604448814e-04 1.9752277306713973e-04 1.3165784741059697e-04  1.2754176897633091e-04 1.8956388059809383e-04 1.2544080316191522e-04  1.1861377407588963e-04 1.5827873361147030e-04 1.2102864328630188e-04  1.0984470936445522e-04 1.7601491016372569e-04 8.9862951138667922e-05  9.2201369136569626e-05 1.5453130644171449e-04 1.1244489288365792e-04  5.2157711234860715e-05 2.1113234233161740e-04 1.6137023420707380e-04  5.2561507614254511e-05 2.1281950197508473e-04 1.5635523062370522e-04  7.4583951512663461e-05 2.3725811075399306e-04 1.1225179105498849e-04  7.3521153900211791e-05 1.9890850238267482e-04 1.3267680497968361e-04  7.8527410991114475e-05 2.2973032677634414e-04 9.1821064551507545e-05  9.1560334230855446e-05 2.1177587515748553e-04 8.3546124040767067e-05  3.8445023266349495e-05 1.8700525965410002e-04 6.1670594978945626e-05  5.5256928043254421e-05 2.0931055863736110e-04 3.3378752716493435e-05  4.5581009490466142e-05 2.4027179572184816e-04 2.2128038810270477e-05  7.1288109929233806e-05 1.5603199262360798e-04 -5.3733115055423361e-05  8.0836257674159404e-05 1.4403536344279150e-04 -4.7527528449202360e-05  6.8444066702633879e-05 1.3906281873601897e-04 -4.1599552264403919e-05  8.9534628365197589e-05 1.8950955839176851e-04 -4.5040246796260846e-05  8.8544852849890791e-05 2.3003175927470101e-04 0.0000000000000000e+00  8.0266485724157449e-05 1.5139632688475490e-04 0.0000000000000000e+00  7.4969176702480492e-04 1.3038078231017655e-04 3.2411318040655320e-03  7.4313483332102547e-04 5.4605764198845023e-05 3.2967425479211048e-03  7.1849931521279341e-04 1.6649187132475930e-05 3.2242034242054947e-03  8.7184261381174509e-04 5.0606736060161616e-05 3.3474529235378173e-03  8.1549704607459552e-04 -1.8802783646599940e-05 3.3539114252286056e-03  7.1061338865024840e-04 0.0000000000000000e+00 3.2029950295268880e-03  7.0176009151231005e-04 0.0000000000000000e+00 3.0642806851688366e-03  6.8707857975609972e-04 0.0000000000000000e+00 2.9221017205412949e-03  6.6182302766940536e-04 0.0000000000000000e+00 2.8398274458962020e-03  5.9836776574894422e-04 0.0000000000000000e+00 2.9006774286804617e-03  6.2796108162587675e-04 0.0000000000000000e+00 2.7814604851374705e-03  6.0825515367062834e-04 0.0000000000000000e+00 2.7676906505683671e-03  5.6314473730086176e-04 0.0000000000000000e+00 2.7399280194558293e-03  5.9343779962065522e-04 0.0000000000000000e+00 2.5892115129581908e-03  5.8720051214355539e-04 0.0000000000000000e+00 2.5765102384553585e-03  5.5772969651449818e-04 0.0000000000000000e+00 2.6188225667096139e-03  5.6702711444784097e-04 0.0000000000000000e+00 2.5066507658632314e-03  5.5114688363702561e-04 0.0000000000000000e+00 2.4646615561090624e-03  5.9293068939850126e-04 0.0000000000000000e+00 2.3255628968761135e-03  5.9310330937599324e-04 0.0000000000000000e+00 2.3322955921270738e-03  5.3721340806000336e-04 0.0000000000000000e+00 2.3043707814238644e-03  4.7522857049844624e-04 0.0000000000000000e+00 2.2909831244138103e-03  5.4271464715146536e-04 0.0000000000000000e+00 2.0880458800261853e-03  5.6784329850504268e-04 0.0000000000000000e+00 2.0924208204577219e-03  4.9811011398432801e-04 0.0000000000000000e+00 1.9684217119653171e-03  5.3956625110755641e-04 0.0000000000000000e+00 1.8149476650257553e-03  4.5635804249032454e-04 0.0000000000000000e+00 1.9675271056737299e-03  4.9694544527107050e-04 0.0000000000000000e+00 1.8492869720232641e-03  5.5460938114503086e-04 0.0000000000000000e+00 1.8543000751973216e-03  4.8584749894649027e-04 0.0000000000000000e+00 1.7849768601047476e-03  4.4010035907517489e-04 0.0000000000000000e+00 1.7619824778658845e-03  4.6611548814701664e-04 0.0000000000000000e+00 1.5662336377832780e-03  4.4361436001112041e-04 0.0000000000000000e+00 1.6205578627117585e-03  4.9533092352495637e-04 0.0000000000000000e+00 1.4746079530042378e-03  5.2627032375637806e-04 0.0000000000000000e+00 1.4621126603867646e-03  4.6506664666629314e-04 0.0000000000000000e+00 1.4078376953146016e-03  3.8271399332445179e-04 0.0000000000000000e+00 1.4042109125906848e-03  4.4327085178177202e-04 0.0000000000000000e+00 1.2434708424532630e-03  4.5000351629938447e-04 0.0000000000000000e+00 1.2737335981009229e-03  4.7410887536117427e-04 0.0000000000000000e+00 1.1235901662615009e-03  4.3911903345186652e-04 0.0000000000000000e+00 1.2012112223878653e-03  3.7071990878414222e-04 0.0000000000000000e+00 1.1029442306079169e-03  4.2725980502919623e-04 0.0000000000000000e+00 1.0100873166965047e-03  4.2724805764093253e-04 0.0000000000000000e+00 1.0798226181544959e-03  4.4263446224959349e-04 0.0000000000000000e+00 9.3947900164047617e-04  4.0212232994798255e-04 0.0000000000000000e+00 1.0109665395834700e-03  3.0983753464427572e-04 0.0000000000000000e+00 9.4589462345810033e-04  3.7530864554949855e-04 0.0000000000000000e+00 8.0784127617013169e-04  3.7434805524284170e-04 0.0000000000000000e+00 8.8012904905979876e-04  3.1036882203100625e-04 0.0000000000000000e+00 8.6792439511699994e-04  3.3664766155187852e-04 0.0000000000000000e+00 7.5416697639779672e-04  3.5018986186250719e-04 0.0000000000000000e+00 8.1794367011585409e-04  3.8716988946714792e-04 0.0000000000000000e+00 7.0472889624053909e-04  3.6268483689879094e-04 0.0000000000000000e+00 7.7126055216730370e-04  3.1752035098420455e-04 0.0000000000000000e+00 7.3881170839628675e-04  2.4919701917092070e-04 0.0000000000000000e+00 6.5688692448632134e-04  2.7939526846915499e-04 0.0000000000000000e+00 5.3926629226309561e-04  2.5071634538478908e-04 0.0000000000000000e+00 6.5213557775653139e-04  2.7613025047007402e-04 0.0000000000000000e+00 5.5186250465421997e-04  2.4736658795451044e-04 0.00000000