<?xml version="1.0"?>
<VTKFile type="UnstructuredGrid"  version="0.1"  >
<UnstructuredGrid>
<Piece  NumberOfPoints="3069" NumberOfCells="12882">
<Points>
<DataArray  type="Float64"  NumberOfComponents="3"  format="ascii">0 0 0  0 0 4  0 5.65685415 0  50 0 4  50 5.65685415 0  50 0 0  0 0 1  0 0 2  0 0 3  0 1.04967844 3.90746784  0 2.0669806 3.632725  0 3.02052855 3.18424606  0 3.88091111 2.5758636  0 4.62159061 1.82634306  0 5.21972132 0.958802283  0 4.71404505 0  0 3.77123618 0  0 2.82842708 0  0 1.88561809 0  0 0.942809045 0  0.5 0 4  1 0 4  1.5 0 4  2 0 4  2.5 0 4  3 0 4  3.5 0 4  4 0 4  4.5 0 4  5 0 4  5.5 0 4  6 0 4  6.5 0 4  7 0 4  7.5 0 4  8 0 4  8.5 0 4  9 0 4  9.5 0 4  10 0 4  10.5 0 4  11 0 4  11.5 0 4  12 0 4  12.5 0 4  13 0 4  13.5 0 4  14 0 4  14.5 0 4  15 0 4  15.5 0 4  16 0 4  16.5 0 4  17 0 4  17.5 0 4  18 0 4  18.5 0 4  19 0 4  19.5 0 4  20 0 4  20.5 0 4  21 0 4  21.5 0 4  22 0 4  22.5 0 4  23 0 4  23.5 0 4  24 0 4  24.5 0 4  25 0 4  25.5 0 4  26 0 4  26.5 0 4  27 0 4  27.5 0 4  28 0 4  28.5 0 4  29 0 4  29.5 0 4  30 0 4  30.5 0 4  31 0 4  31.5 0 4  32 0 4  32.5 0 4  33 0 4  33.5 0 4  34 0 4  34.5 0 4  35 0 4  35.5 0 4  36 0 4  36.5 0 4  37 0 4  37.5 0 4  38 0 4  38.5 0 4  39 0 4  39.5 0 4  40 0 4  40.5 0 4  41 0 4  41.5 0 4  42 0 4  42.5 0 4  43 0 4  43.5 0 4  44 0 4  44.5 0 4  45 0 4  45.5 0 4  46 0 4  46.5 0 4  47 0 4  47.5 0 4  48 0 4  48.5 0 4  49 0 4  49.5 0 4  50 1.04967844 3.90746784  50 2.0669806 3.632725  50 3.02052855 3.18424606  50 3.88091111 2.5758636  50 4.62159061 1.82634306  50 5.21972132 0.958802283  49.5 5.65685415 0  49 5.65685415 0  48.5 5.65685415 0  48 5.65685415 0  47.5 5.65685415 0  47 5.65685415 0  46.5 5.65685415 0  46 5.65685415 0  45.5 5.65685415 0  45 5.65685415 0  44.5 5.65685415 0  44 5.65685415 0  43.5 5.65685415 0  43 5.65685415 0  42.5 5.65685415 0  42 5.65685415 0  41.5 5.65685415 0  41 5.65685415 0  40.5 5.65685415 0  40 5.65685415 0  39.5 5.65685415 0  39 5.65685415 0  38.5 5.65685415 0  38 5.65685415 0  37.5 5.65685415 0  37 5.65685415 0  36.5 5.65685415 0  36 5.65685415 0  35.5 5.65685415 0  35 5.65685415 0  34.5 5.65685415 0  34 5.65685415 0  33.5 5.65685415 0  33 5.65685415 0  32.5 5.65685415 0  32 5.65685415 0  31.5 5.65685415 0  31 5.65685415 0  30.5 5.65685415 0  30 5.65685415 0  29.5 5.65685415 0  29 5.65685415 0  28.5 5.65685415 0  28 5.65685415 0  27.5 5.65685415 0  27 5.65685415 0  26.5 5.65685415 0  26 5.65685415 0  25.5 5.65685415 0  25 5.65685415 0  24.5 5.65685415 0  24 5.65685415 0  23.5 5.65685415 0  23 5.65685415 0  22.5 5.65685415 0  22 5.65685415 0  21.5 5.65685415 0  21 5.65685415 0  20.5 5.65685415 0  20 5.65685415 0  19.5 5.65685415 0  19 5.65685415 0  18.5 5.65685415 0  18 5.65685415 0  17.5 5.65685415 0  17 5.65685415 0  16.5 5.65685415 0  16 5.65685415 0  15.5 5.65685415 0  15 5.65685415 0  14.5 5.65685415 0  14 5.65685415 0  13.5 5.65685415 0  13 5.65685415 0  12.5 5.65685415 0  12 5.65685415 0  11.5 5.65685415 0  11 5.65685415 0  10.5 5.65685415 0  10 5.65685415 0  9.5 5.65685415 0  9 5.65685415 0  8.5 5.65685415 0  8 5.65685415 0  7.5 5.65685415 0  7 5.65685415 0  6.5 5.65685415 0  6 5.65685415 0  5.5 5.65685415 0  5 5.65685415 0  4.5 5.65685415 0  4 5.65685415 0  3.5 5.65685415 0  3 5.65685415 0  2.5 5.65685415 0  2 5.65685415 0  1.5 5.65685415 0  1 5.65685415 0  0.5 5.65685415 0  50 4.71404505 0  50 3.77123618 0  50 2.82842708 0  50 1.88561809 0  50 0.942809045 0  49.5 0 0  49 0 0  48.5 0 0  48 0 0  47.5 0 0  47 0 0  46.5 0 0  46 0 0  45.5 0 0  45 0 0  44.5 0 0  44 0 0  43.5 0 0  43 0 0  42.5 0 0  42 0 0  41.5 0 0  41 0 0  40.5 0 0  40 0 0  39.5 0 0  39 0 0  38.5 0 0  38 0 0  37.5 0 0  37 0 0  36.5 0 0  36 0 0  35.5 0 0  35 0 0  34.5 0 0  34 0 0  33.5 0 0  33 0 0  32.5 0 0  32 0 0  31.5 0 0  31 0 0  30.5 0 0  30 0 0  29.5 0 0  29 0 0  28.5 0 0  28 0 0  27.5 0 0  27 0 0  26.5 0 0  26 0 0  25.5 0 0  25 0 0  24.5 0 0  24 0 0  23.5 0 0  23 0 0  22.5 0 0  22 0 0  21.5 0 0  21 0 0  20.5 0 0  20 0 0  19.5 0 0  19 0 0  18.5 0 0  18 0 0  17.5 0 0  17 0 0  16.5 0 0  16 0 0  15.5 0 0  15 0 0  14.5 0 0  14 0 0  13.5 0 0  13 0 0  12.5 0 0  12 0 0  11.5 0 0  11 0 0  10.5 0 0  10 0 0  9.5 0 0  9 0 0  8.5 0 0  8 0 0  7.5 0 0  7 0 0  6.5 0 0  6 0 0  5.5 0 0  5 0 0  4.5 0 0  4 0 0  3.5 0 0  3 0 0  2.5 0 0  2 0 0  1.5 0 0  1 0 0  0.5 0 0  50 0 1  50 0 2  50 0 3  0 2.33524275 0.893602192  0 2.87561393 1.93323028  0 4.2367816 0.876864135  0 2.00050235 2.65534091  0 0.981494486 2.34323239  0 3.78543234 1.61830366  0 3.30545568 0.887000024  0 0.812916458 1.58408713  0 1.71948838 1.71268857  0 1.28267908 0.8650629520000001  0 1.21973121 3.10775328  0.5 5.21972132 0.958802223  0.5 4.62159061 1.82634306  0.5 3.88091111 2.5758636  0.5 3.02052855 3.18424606  0.5 2.0669806 3.632725  0.5 1.04967844 3.90746784  1 5.21972132 0.958802223  1 4.62159061 1.82634306  1 3.88091111 2.5758636  1 3.02052855 3.18424606  1 2.0669806 3.632725  1 1.04967844 3.90746784  1.5 5.21972132 0.958802223  1.5 4.62159061 1.82634306  1.5 3.88091111 2.5758636  1.5 3.02052855 3.18424606  1.5 2.0669806 3.632725  1.5 1.04967844 3.90746784  2 5.21972132 0.958802223  2 4.62159061 1.82634306  2 3.88091111 2.5758636  2 3.02052855 3.18424606  2 2.0669806 3.632725  2 1.04967844 3.90746784  2.5 5.21972132 0.958802223  2.5 4.62159061 1.82634306  2.5 3.88091111 2.5758636  2.5 3.02052855 3.18424606  2.5 2.0669806 3.632725  2.5 1.04967844 3.90746784  3 5.21972132 0.958802223  3 4.62159061 1.82634306  3 3.88091111 2.5758636  3 3.02052855 3.18424606  3 2.0669806 3.632725  3 1.04967844 3.90746784  3.5 5.21972132 0.958802223  3.5 4.62159061 1.82634306  3.5 3.88091111 2.5758636  3.5 3.02052855 3.18424606  3.5 2.0669806 3.632725  3.5 1.04967844 3.90746784  4 5.21972132 0.958802223  4 4.62159061 1.82634306  4 3.88091111 2.5758636  4 3.02052855 3.18424606  4 2.0669806 3.632725  4 1.04967844 3.90746784  4.5 5.21972132 0.958802223  4.5 4.62159061 1.82634306  4.5 3.88091111 2.5758636  4.5 3.02052855 3.18424606  4.5 2.0669806 3.632725  4.5 1.04967844 3.90746784  5 5.21972132 0.958802223  5 4.62159061 1.82634306  5 3.88091111 2.5758636  5 3.02052855 3.18424606  5 2.0669806 3.632725  5 1.04967844 3.90746784  5.5 5.21972132 0.958802223  5.5 4.62159061 1.82634306  5.5 3.88091111 2.5758636  5.5 3.02052855 3.18424606  5.5 2.0669806 3.632725  5.5 1.04967844 3.90746784  6 5.21972132 0.958802223  6 4.62159061 1.82634306  6 3.88091111 2.5758636  6 3.02052855 3.18424606  6 2.0669806 3.632725  6 1.04967844 3.90746784  6.5 5.21972132 0.958802223  6.5 4.62159061 1.82634306  6.5 3.88091111 2.5758636  6.5 3.02052855 3.18424606  6.5 2.0669806 3.632725  6.5 1.04967844 3.90746784  7 5.21972132 0.958802223  7 4.62159061 1.82634306  7 3.88091111 2.5758636  7 3.02052855 3.18424606  7 2.0669806 3.632725  7 1.04967844 3.90746784  7.5 5.21972132 0.958802223  7.5 4.62159061 1.82634306  7.5 3.88091111 2.5758636  7.5 3.02052855 3.18424606  7.5 2.0669806 3.632725  7.5 1.04967844 3.90746784  8 5.21972132 0.958802223  8 4.62159061 1.82634306  8 3.88091111 2.5758636  8 3.02052855 3.18424606  8 2.0669806 3.632725  8 1.04967844 3.90746784  8.5 5.21972132 0.958802223  8.5 4.62159061 1.82634306  8.5 3.88091111 2.5758636  8.5 3.02052855 3.18424606  8.5 2.0669806 3.632725  8.5 1.04967844 3.90746784  9 5.21972132 0.958802223  9 4.62159061 1.82634306  9 3.88091111 2.5758636  9 3.02052855 3.18424606  9 2.0669806 3.632725  9 1.04967844 3.90746784  9.5 5.21972132 0.958802223  9.5 4.62159061 1.82634306  9.5 3.88091111 2.5758636  9.5 3.02052855 3.18424606  9.5 2.0669806 3.632725  9.5 1.04967844 3.90746784  10 5.21972132 0.958802223  10 4.62159061 1.82634306  10 3.88091111 2.5758636  10 3.02052855 3.18424606  10 2.0669806 3.632725  10 1.04967844 3.90746784  10.5 5.21972132 0.958802223  10.5 4.62159061 1.82634306  10.5 3.88091111 2.5758636  10.5 3.02052855 3.18424606  10.5 2.0669806 3.632725  10.5 1.04967844 3.90746784  11 5.21972132 0.958802223  11 4.62159061 1.82634306  11 3.88091111 2.5758636  11 3.02052855 3.18424606  11 2.0669806 3.632725  11 1.04967844 3.90746784  11.5 5.21972132 0.958802223  11.5 4.62159061 1.82634306  11.5 3.88091111 2.5758636  11.5 3.02052855 3.18424606  11.5 2.0669806 3.632725  11.5 1.04967844 3.90746784  12 5.21972132 0.958802223  12 4.62159061 1.82634306  12 3.88091111 2.5758636  12 3.02052855 3.18424606  12 2.0669806 3.632725  12 1.04967844 3.90746784  12.5 5.21972132 0.958802223  12.5 4.62159061 1.82634306  12.5 3.88091111 2.5758636  12.5 3.02052855 3.18424606  12.5 2.0669806 3.632725  12.5 1.04967844 3.90746784  13 5.21972132 0.958802223  13 4.62159061 1.82634306  13 3.88091111 2.5758636  13 3.02052855 3.18424606  13 2.0669806 3.632725  13 1.04967844 3.90746784  13.5 5.21972132 0.958802223  13.5 4.62159061 1.82634306  13.5 3.88091111 2.5758636  13.5 3.02052855 3.18424606  13.5 2.0669806 3.632725  13.5 1.04967844 3.90746784  14 5.21972132 0.958802223  14 4.62159061 1.82634306  14 3.88091111 2.5758636  14 3.02052855 3.18424606  14 2.0669806 3.632725  14 1.04967844 3.90746784  14.5 5.21972132 0.958802223  14.5 4.62159061 1.82634306  14.5 3.88091111 2.5758636  14.5 3.02052855 3.18424606  14.5 2.0669806 3.632725  14.5 1.04967844 3.90746784  15 5.21972132 0.958802223  15 4.62159061 1.82634306  15 3.88091111 2.5758636  15 3.02052855 3.18424606  15 2.0669806 3.632725  15 1.04967844 3.90746784  15.5 5.21972132 0.958802223  15.5 4.62159061 1.82634306  15.5 3.88091111 2.5758636  15.5 3.02052855 3.18424606  15.5 2.0669806 3.632725  15.5 1.04967844 3.90746784  16 5.21972132 0.958802223  16 4.62159061 1.82634306  16 3.88091111 2.5758636  16 3.02052855 3.18424606  16 2.0669806 3.632725  16 1.04967844 3.90746784  16.5 5.21972132 0.958802223  16.5 4.62159061 1.82634306  16.5 3.88091111 2.5758636  16.5 3.02052855 3.18424606  16.5 2.0669806 3.632725  16.5 1.04967844 3.90746784  17 5.21972132 0.958802223  17 4.62159061 1.82634306  17 3.88091111 2.5758636  17 3.02052855 3.18424606  17 2.0669806 3.632725  17 1.04967844 3.90746784  17.5 5.21972132 0.958802223  17.5 4.62159061 1.82634306  17.5 3.88091111 2.5758636  17.5 3.02052855 3.18424606  17.
[...]
<PointData  Vectors="f_261141-0"> 
<DataArray  type="Float64"  Name="f_261141-0"  NumberOfComponents="3" format="ascii">0.0000000000000000e+00 0.0000000000000000e+00 0.0000000000000000e+00  0.0000000000000000e+00 0.0000000000000000e+00 3.5494384037244830e-01  0.0000000000000000e+00 6.2009738776267853e-01 0.0000000000000000e+00  4.5230144219987123e+00 0.0000000000000000e+00 3.9143109848287438e+00  5.2984451024712760e+00 5.2560646603568451e-01 3.8318893488676129e+00  5.1814121176945136e+00 0.0000000000000000e+00 3.7099661326198050e+00  0.0000000000000000e+00 0.0000000000000000e+00 1.1477598624968503e-01  0.0000000000000000e+00 0.0000000000000000e+00 1.9048792794815364e-01  0.0000000000000000e+00 0.0000000000000000e+00 2.4711225624833880e-01  0.0000000000000000e+00 7.0231781677566732e-02 3.5970742937237121e-01  0.0000000000000000e+00 1.7342248966863372e-01 3.7141005034411934e-01  0.0000000000000000e+00 2.7650855306679817e-01 3.3891564705170441e-01  0.0000000000000000e+00 3.7532457362123822e-01 2.8535700108863160e-01  0.0000000000000000e+00 4.7915971688746811e-01 2.1590835533709551e-01  0.0000000000000000e+00 5.6777816233752310e-01 1.1653042193897037e-01  0.0000000000000000e+00 5.0829100872193267e-01 0.0000000000000000e+00  0.0000000000000000e+00 3.9034868867292255e-01 0.0000000000000000e+00  0.0000000000000000e+00 2.7564284980215853e-01 0.0000000000000000e+00  0.0000000000000000e+00 1.7449184826798209e-01 0.0000000000000000e+00  0.0000000000000000e+00 8.4583513488178538e-02 0.0000000000000000e+00  4.8541119179815136e-02 0.0000000000000000e+00 3.5633822608049226e-01  9.4119754347843185e-02 0.0000000000000000e+00 3.5581635915681842e-01  1.4158754757095884e-01 0.0000000000000000e+00 3.5690330103929607e-01  1.8943231967553076e-01 0.0000000000000000e+00 3.5865979325340347e-01  2.3922084887719597e-01 0.0000000000000000e+00 3.5987352809769024e-01  2.8574717238466102e-01 0.0000000000000000e+00 3.6529017229161054e-01  3.3521489656660641e-01 0.0000000000000000e+00 3.7154370796587383e-01  3.8220346685333301e-01 0.0000000000000000e+00 3.7847579597597603e-01  4.2983843579456404e-01 0.0000000000000000e+00 3.8974712918017063e-01  4.7783560753768900e-01 0.0000000000000000e+00 4.0009760428894625e-01  5.2686410151647756e-01 0.0000000000000000e+00 4.1052465648483150e-01  5.7595581497470538e-01 0.0000000000000000e+00 4.1080516949748752e-01  6.2381496609809162e-01 0.0000000000000000e+00 4.1947278678310757e-01  6.7047146547977698e-01 0.0000000000000000e+00 4.3226126887261190e-01  7.2129312239305710e-01 0.0000000000000000e+00 4.4188657342475129e-01  7.6674878804316382e-01 0.0000000000000000e+00 4.5259670690065062e-01  8.1391902554751672e-01 0.0000000000000000e+00 4.6377054042928439e-01  8.6076480062082428e-01 0.0000000000000000e+00 4.7975536286952830e-01  9.1054653074049097e-01 0.0000000000000000e+00 4.9125505659989455e-01  9.5957414732803570e-01 0.0000000000000000e+00 5.0211844860187704e-01  1.0076359807063082e+00 0.0000000000000000e+00 5.1477663841032784e-01  1.0577458745962112e+00 0.0000000000000000e+00 5.3267909781840506e-01  1.1060227665528681e+00 0.0000000000000000e+00 5.4697815446497611e-01  1.1534764186168807e+00 0.0000000000000000e+00 5.6275625155935594e-01  1.2016534730505799e+00 0.0000000000000000e+00 5.7956115462312607e-01  1.2480030225173766e+00 0.0000000000000000e+00 5.9891412960464685e-01  1.2943637105704373e+00 0.0000000000000000e+00 6.2112218795983731e-01  1.3436888312820883e+00 0.0000000000000000e+00 6.3767084591875178e-01  1.3897309951680605e+00 0.0000000000000000e+00 6.5739024566551663e-01  1.4364300318647896e+00 0.0000000000000000e+00 6.8335293522735974e-01  1.4888949857770695e+00 0.0000000000000000e+00 6.9554890746197440e-01  1.5391229769882173e+00 0.0000000000000000e+00 7.2123618496606390e-01  1.5848766117085487e+00 0.0000000000000000e+00 7.5027784168762091e-01  1.6329613600084654e+00 0.0000000000000000e+00 7.7292109369050355e-01  1.6790129767785560e+00 0.0000000000000000e+00 8.0015654634100919e-01  1.7264955215522717e+00 0.0000000000000000e+00 8.2393211806735378e-01  1.7713539585181448e+00 0.0000000000000000e+00 8.5192272576589867e-01  1.8187949037154159e+00 0.0000000000000000e+00 8.7519342010455892e-01  1.8656886928511487e+00 0.0000000000000000e+00 9.0501499824601106e-01  1.9127696058962576e+00 0.0000000000000000e+00 9.3187993031158156e-01  1.9621403350357529e+00 0.0000000000000000e+00 9.6021106504891762e-01  2.0078969944517975e+00 0.0000000000000000e+00 9.8743966164194785e-01  2.0553274565103679e+00 0.0000000000000000e+00 1.0187017863587378e+00  2.1009452701209366e+00 0.0000000000000000e+00 1.0544581545096372e+00  2.1499741533581118e+00 0.0000000000000000e+00 1.0849559356364482e+00  2.1983306910067340e+00 0.0000000000000000e+00 1.1186093960843011e+00  2.2454394841888359e+00 0.0000000000000000e+00 1.1491257655757043e+00  2.2908515026306224e+00 0.0000000000000000e+00 1.1832022608625279e+00  2.3383219020689028e+00 0.0000000000000000e+00 1.2188920040647928e+00  2.3840721404039438e+00 0.0000000000000000e+00 1.2558459660679648e+00  2.4316999256523926e+00 0.0000000000000000e+00 1.2952283410658183e+00  2.4786990928971715e+00 0.0000000000000000e+00 1.3305551766055559e+00  2.5236949645330800e+00 0.0000000000000000e+00 1.3712444921976046e+00  2.5706568108997589e+00 0.0000000000000000e+00 1.4112988639600357e+00  2.6167830571072908e+00 0.0000000000000000e+00 1.4496913528332629e+00  2.6606825082562122e+00 0.0000000000000000e+00 1.4884950543038686e+00  2.7095431454307284e+00 0.0000000000000000e+00 1.5309952786781291e+00  2.7565847861298831e+00 0.0000000000000000e+00 1.5747780329964769e+00  2.8033526380199092e+00 0.0000000000000000e+00 1.6171221463566374e+00  2.8466770841594551e+00 0.0000000000000000e+00 1.6638947774417017e+00  2.8939848332618170e+00 0.0000000000000000e+00 1.7098889883368475e+00  2.9413990251725308e+00 0.0000000000000000e+00 1.7534733050668654e+00  2.9870020444307062e+00 0.0000000000000000e+00 1.7977877934206816e+00  3.0346377254222339e+00 0.0000000000000000e+00 1.8455123341484914e+00  3.0816643442904974e+00 0.0000000000000000e+00 1.8897649152701772e+00  3.1258057215404773e+00 0.0000000000000000e+00 1.9366143532767444e+00  3.1727141576887012e+00 0.0000000000000000e+00 1.9842396020532089e+00  3.2195164545866408e+00 0.0000000000000000e+00 2.0342936423357938e+00  3.2631909410641833e+00 0.0000000000000000e+00 2.0844522922049271e+00  3.3092359580303476e+00 0.0000000000000000e+00 2.1376682813353449e+00  3.3556110061011442e+00 0.0000000000000000e+00 2.1875965897298424e+00  3.4010993951862174e+00 0.0000000000000000e+00 2.2413816380776219e+00  3.4431897823480320e+00 0.0000000000000000e+00 2.2989405199921498e+00  3.4888222317117421e+00 0.0000000000000000e+00 2.3536882030905555e+00  3.5353087216268793e+00 0.0000000000000000e+00 2.4062798725871808e+00  3.5809466147671785e+00 0.0000000000000000e+00 2.4638249640773693e+00  3.6247917089156232e+00 0.0000000000000000e+00 2.5198624717719795e+00  3.6701411701247322e+00 0.0000000000000000e+00 2.5763554556310462e+00  3.7133380307062773e+00 0.0000000000000000e+00 2.6371159296733806e+00  3.7587159132210473e+00 0.0000000000000000e+00 2.6968129098639526e+00  3.8044798290874260e+00 0.0000000000000000e+00 2.7556433092187449e+00  3.8468157455334153e+00 0.0000000000000000e+00 2.8141627533168294e+00  3.8914566397641908e+00 0.0000000000000000e+00 2.8777432970275729e+00  3.9376833127257260e+00 0.0000000000000000e+00 2.9374442052416598e+00  3.9811354836417672e+00 0.0000000000000000e+00 2.9964182968557314e+00  4.0255871502604545e+00 0.0000000000000000e+00 3.0599266652401904e+00  4.0704774028359560e+00 0.0000000000000000e+00 3.1192548267184410e+00  4.1129066243245607e+00 0.0000000000000000e+00 3.1832858859291404e+00  4.1578945965419019e+00 0.0000000000000000e+00 3.2493496371541535e+00  4.2015469404069670e+00 0.0000000000000000e+00 3.3137077664742534e+00  4.2437578856498996e+00 0.0000000000000000e+00 3.3778094757899737e+00  4.2874572402058027e+00 0.0000000000000000e+00 3.4405095266364132e+00  4.3303813138729295e+00 0.0000000000000000e+00 3.5003539477905692e+00  4.3733309029092364e+00 0.0000000000000000e+00 3.5548597849579138e+00  4.4119881019858305e+00 0.0000000000000000e+00 3.6068336866605204e+00  4.4434110496575352e+00 0.0000000000000000e+00 3.6578771460548425e+00  4.4692080125590534e+00 0.0000000000000000e+00 3.7127905400413721e+00  4.4906460653994893e+00 0.0000000000000000e+00 3.7727287533296705e+00  4.5063343507176565e+00 0.0000000000000000e+00 3.8369295070399723e+00  4.5562153800606966e+00 3.4278025887148240e-02 3.9100157448132520e+00  4.6154990493633612e+00 8.2170768635384958e-02 3.9226247176469338e+00  4.6981879137946452e+00 1.4174760191252544e-01 3.9394500743762002e+00  4.8093348269984144e+00 2.1888555791121744e-01 3.9468499561156372e+00  4.9552946289967235e+00 3.1229143541683246e-01 3.9464869159791580e+00  5.1354130604258117e+00 4.2274313154310650e-01 3.9073552793427027e+00  5.2511083748081999e+00 5.4155588720085812e-01 3.7504560038833592e+00  5.2014315164676228e+00 5.5855275749561017e-01 3.6652721159060864e+00  5.1520307463245985e+00 5.7375633113643199e-01 3.5782987384730220e+00  5.1008327858689020e+00 5.8683823402447044e-01 3.4925488583230133e+00  5.0473071716741478e+00 5.9782459865700743e-01 3.4085471593189003e+00  4.9922592738674663e+00 6.0663704717716216e-01 3.3255181109549929e+00  4.9357732641282563e+00 6.1122889539234093e-01 3.2449365879560110e+00  4.8782126599331992e+00 6.1299830257949273e-01 3.1668919792390429e+00  4.8227323607852357e+00 6.1458053106750765e-01 3.0879137854695369e+00  4.7660116511198751e+00 6.1416257062531354e-01 3.0134856764714977e+00  4.7112281153799387e+00 6.1590624235073521e-01 2.9384836809519377e+00  4.6570477798727712e+00 6.1760759167365442e-01 2.8659135070875608e+00  4.6033517778418691e+00 6.1801975390145480e-01 2.7973593052228458e+00  4.5499506962391463e+00 6.1832011102547024e-01 2.7297243632077421e+00  4.4986938828950054e+00 6.1727700506076588e-01 2.6609266854722522e+00  4.4460582555666202e+00 6.1547255966964154e-01 2.5935250711569058e+00  4.3942092684794734e+00 6.1429929736027833e-01 2.5311276166099863e+00  4.3423233434484416e+00 6.1448951217313563e-01 2.4700848133731834e+00  4.2909847003202639e+00 6.1649943247704342e-01 2.4069517034239634e+00  4.2395955121231790e+00 6.1539994921202212e-01 2.3440312115296664e+00  4.1879791835858704e+00 6.1230977496856631e-01 2.2817248526332721e+00  4.1350311672635369e+00 6.1197106886421004e-01 2.2195479526482087e+00  4.0831992904535266e+00 6.1003878557356228e-01 2.1585389037997733e+00  4.0309304457456721e+00 6.0945198278236556e-01 2.0992388393934918e+00  3.9799912134654698e+00 6.0911597590614353e-01 2.0393534502782296e+00  3.9279122868375835e+00 6.0418123303911631e-01 1.9842758037073078e+00  3.8756250501157150e+00 6.0509910347914164e-01 1.9295105937192027e+00  3.8242934440679006e+00 6.0754558069358733e-01 1.8730739525052416e+00  3.7731516717529616e+00 6.0575131274124083e-01 1.8215589700788342e+00  3.7227491815681231e+00 6.0791424902824331e-01 1.7680817162352540e+00  3.6707334287103821e+00 6.0654252760751737e-01 1.7172852261820117e+00  3.6190123581163727e+00 6.0354335245574409e-01 1.6671388884791276e+00  3.5667804173179642e+00 6.0393971592160367e-01 1.6177883782166003e+00  3.5151718321591443e+00 6.0543465814455233e-01 1.5687158383543751e+00  3.4634113042453984e+00 6.0516365058178478e-01 1.5209811715084534e+00  3.4121872890574716e+00 6.0687117050607986e-01 1.4723906995505360e+00  3.3609643251297174e+00 6.0777531903635140e-01 1.4237573824205452e+00  3.3083880789239695e+00 6.0789301492517323e-01 1.3775174743552623e+00  3.2556886097678448e+00 6.0683397958251883e-01 1.3329851012975222e+00  3.2038270336084373e+00 6.0903532758427070e-01 1.2881869294079205e+00  3.1515732218150840e+00 6.0931698856347005e-01 1.2433286619915034e+00  3.0987397730752995e+00 6.0782996903303954e-01 1.2013453369737563e+00  3.0445976142959523e+00 6.0686326809079028e-01 1.1591471511367395e+00  2.9927665380937412e+00 6.0659535234424711e-01 1.1133675668952094e+00  2.9410208149353814e+00 6.0539096028911077e-01 1.0711390853437788e+00  2.8887381608257101e+00 6.0677985400724110e-01 1.0315262344580907e+00  2.8362688204821418e+00 6.0871751660014473e-01 9.9174926753374137e-01  2.7833916531639384e+00 6.0732559664271701e-01 9.5488290281017307e-01  2.7302197680312656e+00 6.0644494301507235e-01 9.1613977582664485e-01  2.6770859934439821e+00 6.0541976186405189e-01 8.7737992238975948e-01  2.6233895307032338e+00 6.0462392444484303e-01 8.4232177672760655e-01  2.5705769136261303e+00 6.0724902286400217e-01 8.0477339691790373e-01  2.5181724546180186e+00 6.0606658134938374e-01 7.7224577259361094e-01  2.4655117378586611e+00 6.0791807144969490e-01 7.3371835187654733e-01  2.4129269542935980e+00 6.0322893326418858e-01 6.9880602536853254e-01  2.3587875079850251e+00 6.0317773894506244e-01 6.6635589111240801e-01  2.3049049620158306e+00 6.0551280982404898e-01 6.3496675954753123e-01  2.2523656164472032e+00 6.0580774218753508e-01 6.0294942456254097e-01  2.1988666360174567e+00 6.0528540596319169e-01 5.7385379794609670e-01  2.1459002798536422e+00 6.0602289750927085e-01 5.4342277981713183e-01  2.0922373932743139e+00 6.0460220923644814e-01 5.1637878080139943e-01  2.0390114446294945e+00 6.0575366998091673e-01 4.8889906602893685e-01  1.9849492811118936e+00 6.0769156533663704e-01 4.6435722412580693e-01  1.9328513626497583e+00 6.0736923519567398e-01 4.3845635633242114e-01  1.8794876554429221e+00 6.0835726893036368e-01 4.1519548088951752e-01  1.8251152097381995e+00 6.0836284573120825e-01 3.9337387821725767e-01  1.7713107804382198e+00 6.0935171993066195e-01 3.6946615494624008e-01  1.7189289830784451e+00 6.1100978597048328e-01 3.4495855040746221e-01  1.6656677436218219e+00 6.0928758724012244e-01 3.2345026359209944e-01  1.6120742510965735e+00 6.0978668310922235e-01 2.9991295581060906e-01  1.5580925790391149e+00 6.0772778514612347e-01 2.7891528603482757e-01  1.5045239119087972e+00 6.0940881223314503e-01 2.5630172821869401e-01  1.4514631925204324e+00 6.0815881902659741e-01 2.3545311706596261e-01  1.3966944008487665e+00 6.0774390466272310e-01 2.1574484849849779e-01  1.3429120966199375e+00 6.0660975230397629e-01 1.9606985440709138e-01  1.2881044853134644e+00 6.0812234984751001e-01 1.7838313885419227e-01  1.2346549368701927e+00 6.0895084853418324e-01 1.6232842747698642e-01  1.1819508639766541e+00 6.0927973323028894e-01 1.4685952308914071e-01  1.1285311098090791e+00 6.1034772758189271e-01 1.3207986602990596e-01  1.0744169726310224e+00 6.0853585278193634e-01 1.1896830647521794e-01  1.0206072242803039e+00 6.0772910000637970e-01 1.0426901812888410e-01  9.6695240856329778e-01 6.0763935658018442e-01 9.2341910319462470e-02  9.1363230407541884e-01 6.0759060565936951e-01 8.0608559297651733e-02  8.6020832420864357e-01 6.1059212203747415e-01 6.7150399150013806e-02  8.0729613914908471e-01 6.0840693746512986e-01 5.4941435947713467e-02  7.5351462667912927e-01 6.0911013009391213e-01 4.3957323185034008e-02  6.9836345693791468e-01 6.0674747026338716e-01 3.6048119691963976e-02  6.4475204938001429e-01 6.0683998089189861e-01 2.5909028320175345e-02  5.9089076782487837e-01 6.0625147555037018e-01 1.9696169496010628e-02  5.3682198141693416e-01 6.0768061546662600e-01 1.3625276877713753e-02  4.8393335526155645e-01 6.1019461541763775e-01 7.4495183371528538e-03  4.3046110899639051e-01 6.1126728955203280e-01 3.5312710994105470e-03  3.7713632327734353e-01 6.1112616417557086e-01 4.6214361865755144e-04  3.2232443196204980e-01 6.1437584338366302e-01 3.6075624351603091e-04  2.6822926008225939e-01 6.1710306308682961e-01 -6.2958196755973442e-04  2.1479792688854990e-01 6.1716417805808987e-01 6.4685043169077387e-04  1.6047725346582489e-01 6.1593831335466165e-01 1.9299714918351075e-03  1.0575787556308640e-01 6.1673620569070753e-01 0.0000000000000000e+00  5.1221489888498631e-02 6.1709885382425111e-01 0.0000000000000000e+00  5.2729181597629937e+00 4.1599848184738153e-01 3.7944099020553876e+00  5.2498011718156992e+00 3.2419286073563697e-01 3.7620912049114734e+00  5.2230048513773468e+00 2.3057367329431422e-01 3.7368257470454629e+00  5.2136301297186032e+00 1.5630574708101372e-01 3.7330800317121526e+00  5.1934256214598236e+00 7.3967515974963510e-02 3.7172895778447232e+00  5.1318313575993111e+00 0.0000000000000000e+00 3.6209595806684134e+00  5.0860201129023688e+00 0.0000000000000000e+00 3.5446064514284972e+00  5.0396655367219232e+00 0.0000000000000000e+00 3.4646449788124425e+00  4.9933531523073009e+00 0.0000000000000000e+00 3.3909466627991716e+00  4.9446475979540221e+00 0.0000000000000000e+00 3.3224352335923863e+00  4.8982769968445083e+00 0.0000000000000000e+00 3.2537680824532549e+00  4.8498073556814330e+00 0.0000000000000000e+00 3.1888604405262151e+00  4.8044816230889644e+00 0.0000000000000000e+00 3.1227705117060229e+00  4.7595873558300825e+00 0.0000000000000000e+00 3.0533419266251984e+00  4.7095973116999890e+00 0.0000000000000000e+00 2.9962562059848077e+00  4.6628426049600957e+00 0.0000000000000000e+00 2.9331522306188420e+00  4.6153193886553359e+00 0.0000000000000000e+00 2.8658873220409835e+00  4.5680250598019372e+00 0.0000000000000000e+00 2.7992681597598539e+00  4.5198552251365847e+00 0.0000000000000000e+00 2.7363546774330270e+00  4.4699053961337016e+00 0.0000000000000000e+00 2.6798876252829826e+00  4.4197010816965667e+00 0.0000000000000000e+00 2.6201202733905862e+00  4.3705400800190306e+00 0.0000000000000000e+00 2.5570444761627762e+00  4.3231929778128979e+00 0.0000000000000000e+00 2.4926920336507079e+00  4.2733609870584512e+00 0.0000000000000000e+00 2.4403116302998020e+00  4.2246089272867717e+00 0.0000000000000000e+00 2.3793776583914434e+00  4.1754645592169499e+00 0.0000000000000000e+00 2.3183790294265161e+00  4.1226770434244449e+00 0.0000000000000000e+00 2.2652251816220930e+00  4.0731468554335608e+00 0.0000000000000000e+00 2.2030231689056166e+00  4.0227877326744617e+00 0.0000000000000000e+00 2.1501852864497883e+00  3.9714122514898893e+00 0.0000000000000000e+00 2.0920977443498581e+00  3.9208431441328617e+00 0.0000000000000000e+00 2.0339818085218049e+00  3.8713618424665404e+00 0.0000000000000000e+00 1.9754422885136200e+00  3.8188528076657855e+00 0.0000000000000000e+00 1.9277393210874112e+00  3.7670114029102160e+00 0.0000000000000000e+00 1.8732066304865671e+00  3.7155802093832220e+00 0.0000000000000000e+00 1.8235830516547287e+00  3.6619212070287310e+00 0.0000000000000000e+00 1.7746754858268572e+00  3.6110371535126906e+00 0.0000000000000000e+00 1.7216715508716061e+00  3.5624860938508087e+00 0.0000000000000000e+00 1.6646690386547718e+00  3.5110310796075801e+00 0.0000000000000000e+00 1.6182013524773269e+00  3.4600958795922874e+00 0.0000000000000000e+00 1.5653902555853192e+00  3.4068948113515987e+00 0.0000000000000000e+00 1.5231836229120528e+00  3.3548136192125804e+00 0.0000000000000000e+00 1.4733087905856597e+00  3.3052841672951625e+00 0.0000000000000000e+00 1.4251568953357803e+00  3.2527410408045121e+00 0.0000000000000000e+00 1.3826750451571399e+00  3.2002432980023690e+00 0.0000000000000000e+00 1.3320298329871418e+00  3.1462795255873162e+00 0.0000000000000000e+00 1.2926365330983052e+00  3.0942525614553844e+00 0.0000000000000000e+00 1.2438344090459794e+00  3.0420888803784720e+00 0.0000000000000000e+00 1.1986181492025920e+00  2.9875807305755933e+00 0.0000000000000000e+00 1.1630054293501952e+00  2.9340496642033558e+00 0.0000000000000000e+00 1.1226135507064796e+00  2.8824079119944779e+00 0.0000000000000000e+00 1.0778799997243294e+00  2.8281199732748306e+00 0.0000000000000000e+00 1.0435669942910091e+00  2.7780236545508039e+00 0.0000000000000000e+00 1.0008849528228887e+00  2.7250308841803643e+00 0.0000000000000000e+00 9.6720022793319738e-01  2.6719648608974533e+00 0.0000000000000000e+00 9.2791754390146608e-01  2.6186579590509198e+00 0.0000000000000000e+00 8.9353026785682310e-01  2.5670358057188292e+00 0.0000000000000000e+00 8.5459332054565862e-01  2.5137038720211256e+00 0.0000000000000000e+00 8.2488930490230028e-01  2.4634372016027295e+00 0.0000000000000000e+00 7.8367646231551791e-01  2.4110672062492955e+00 0.0000000000000000e+00 7.5237391264490294e-01 