<?xml version="1.0"?>
<VTKFile type="UnstructuredGrid"  version="0.1"  >
<UnstructuredGrid>
<Piece  NumberOfPoints="3069" NumberOfCells="12882">
<Points>
<DataArray  type="Float64"  NumberOfComponents="3"  format="ascii">0 0 0  0 0 4  0 5.65685415 0  50 0 4  50 5.65685415 0  50 0 0  0 0 1  0 0 2  0 0 3  0 1.04967844 3.90746784  0 2.0669806 3.632725  0 3.02052855 3.18424606  0 3.88091111 2.5758636  0 4.62159061 1.82634306  0 5.21972132 0.958802283  0 4.71404505 0  0 3.77123618 0  0 2.82842708 0  0 1.88561809 0  0 0.942809045 0  0.5 0 4  1 0 4  1.5 0 4  2 0 4  2.5 0 4  3 0 4  3.5 0 4  4 0 4  4.5 0 4  5 0 4  5.5 0 4  6 0 4  6.5 0 4  7 0 4  7.5 0 4  8 0 4  8.5 0 4  9 0 4  9.5 0 4  10 0 4  10.5 0 4  11 0 4  11.5 0 4  12 0 4  12.5 0 4  13 0 4  13.5 0 4  14 0 4  14.5 0 4  15 0 4  15.5 0 4  16 0 4  16.5 0 4  17 0 4  17.5 0 4  18 0 4  18.5 0 4  19 0 4  19.5 0 4  20 0 4  20.5 0 4  21 0 4  21.5 0 4  22 0 4  22.5 0 4  23 0 4  23.5 0 4  24 0 4  24.5 0 4  25 0 4  25.5 0 4  26 0 4  26.5 0 4  27 0 4  27.5 0 4  28 0 4  28.5 0 4  29 0 4  29.5 0 4  30 0 4  30.5 0 4  31 0 4  31.5 0 4  32 0 4  32.5 0 4  33 0 4  33.5 0 4  34 0 4  34.5 0 4  35 0 4  35.5 0 4  36 0 4  36.5 0 4  37 0 4  37.5 0 4  38 0 4  38.5 0 4  39 0 4  39.5 0 4  40 0 4  40.5 0 4  41 0 4  41.5 0 4  42 0 4  42.5 0 4  43 0 4  43.5 0 4  44 0 4  44.5 0 4  45 0 4  45.5 0 4  46 0 4  46.5 0 4  47 0 4  47.5 0 4  48 0 4  48.5 0 4  49 0 4  49.5 0 4  50 1.04967844 3.90746784  50 2.0669806 3.632725  50 3.02052855 3.18424606  50 3.88091111 2.5758636  50 4.62159061 1.82634306  50 5.21972132 0.958802283  49.5 5.65685415 0  49 5.65685415 0  48.5 5.65685415 0  48 5.65685415 0  47.5 5.65685415 0  47 5.65685415 0  46.5 5.65685415 0  46 5.65685415 0  45.5 5.65685415 0  45 5.65685415 0  44.5 5.65685415 0  44 5.65685415 0  43.5 5.65685415 0  43 5.65685415 0  42.5 5.65685415 0  42 5.65685415 0  41.5 5.65685415 0  41 5.65685415 0  40.5 5.65685415 0  40 5.65685415 0  39.5 5.65685415 0  39 5.65685415 0  38.5 5.65685415 0  38 5.65685415 0  37.5 5.65685415 0  37 5.65685415 0  36.5 5.65685415 0  36 5.65685415 0  35.5 5.65685415 0  35 5.65685415 0  34.5 5.65685415 0  34 5.65685415 0  33.5 5.65685415 0  33 5.65685415 0  32.5 5.65685415 0  32 5.65685415 0  31.5 5.65685415 0  31 5.65685415 0  30.5 5.65685415 0  30 5.65685415 0  29.5 5.65685415 0  29 5.65685415 0  28.5 5.65685415 0  28 5.65685415 0  27.5 5.65685415 0  27 5.65685415 0  26.5 5.65685415 0  26 5.65685415 0  25.5 5.65685415 0  25 5.65685415 0  24.5 5.65685415 0  24 5.65685415 0  23.5 5.65685415 0  23 5.65685415 0  22.5 5.65685415 0  22 5.65685415 0  21.5 5.65685415 0  21 5.65685415 0  20.5 5.65685415 0  20 5.65685415 0  19.5 5.65685415 0  19 5.65685415 0  18.5 5.65685415 0  18 5.65685415 0  17.5 5.65685415 0  17 5.65685415 0  16.5 5.65685415 0  16 5.65685415 0  15.5 5.65685415 0  15 5.65685415 0  14.5 5.65685415 0  14 5.65685415 0  13.5 5.65685415 0  13 5.65685415 0  12.5 5.65685415 0  12 5.65685415 0  11.5 5.65685415 0  11 5.65685415 0  10.5 5.65685415 0  10 5.65685415 0  9.5 5.65685415 0  9 5.65685415 0  8.5 5.65685415 0  8 5.65685415 0  7.5 5.65685415 0  7 5.65685415 0  6.5 5.65685415 0  6 5.65685415 0  5.5 5.65685415 0  5 5.65685415 0  4.5 5.65685415 0  4 5.65685415 0  3.5 5.65685415 0  3 5.65685415 0  2.5 5.65685415 0  2 5.65685415 0  1.5 5.65685415 0  1 5.65685415 0  0.5 5.65685415 0  50 4.71404505 0  50 3.77123618 0  50 2.82842708 0  50 1.88561809 0  50 0.942809045 0  49.5 0 0  49 0 0  48.5 0 0  48 0 0  47.5 0 0  47 0 0  46.5 0 0  46 0 0  45.5 0 0  45 0 0  44.5 0 0  44 0 0  43.5 0 0  43 0 0  42.5 0 0  42 0 0  41.5 0 0  41 0 0  40.5 0 0  40 0 0  39.5 0 0  39 0 0  38.5 0 0  38 0 0  37.5 0 0  37 0 0  36.5 0 0  36 0 0  35.5 0 0  35 0 0  34.5 0 0  34 0 0  33.5 0 0  33 0 0  32.5 0 0  32 0 0  31.5 0 0  31 0 0  30.5 0 0  30 0 0  29.5 0 0  29 0 0  28.5 0 0  28 0 0  27.5 0 0  27 0 0  26.5 0 0  26 0 0  25.5 0 0  25 0 0  24.5 0 0  24 0 0  23.5 0 0  23 0 0  22.5 0 0  22 0 0  21.5 0 0  21 0 0  20.5 0 0  20 0 0  19.5 0 0  19 0 0  18.5 0 0  18 0 0  17.5 0 0  17 0 0  16.5 0 0  16 0 0  15.5 0 0  15 0 0  14.5 0 0  14 0 0  13.5 0 0  13 0 0  12.5 0 0  12 0 0  11.5 0 0  11 0 0  10.5 0 0  10 0 0  9.5 0 0  9 0 0  8.5 0 0  8 0 0  7.5 0 0  7 0 0  6.5 0 0  6 0 0  5.5 0 0  5 0 0  4.5 0 0  4 0 0  3.5 0 0  3 0 0  2.5 0 0  2 0 0  1.5 0 0  1 0 0  0.5 0 0  50 0 1  50 0 2  50 0 3  0 2.33524275 0.893602192  0 2.87561393 1.93323028  0 4.2367816 0.876864135  0 2.00050235 2.65534091  0 0.981494486 2.34323239  0 3.78543234 1.61830366  0 3.30545568 0.887000024  0 0.812916458 1.58408713  0 1.71948838 1.71268857  0 1.28267908 0.8650629520000001  0 1.21973121 3.10775328  0.5 5.21972132 0.958802223  0.5 4.62159061 1.82634306  0.5 3.88091111 2.5758636  0.5 3.02052855 3.18424606  0.5 2.0669806 3.632725  0.5 1.04967844 3.90746784  1 5.21972132 0.958802223  1 4.62159061 1.82634306  1 3.88091111 2.5758636  1 3.02052855 3.18424606  1 2.0669806 3.632725  1 1.04967844 3.90746784  1.5 5.21972132 0.958802223  1.5 4.62159061 1.82634306  1.5 3.88091111 2.5758636  1.5 3.02052855 3.18424606  1.5 2.0669806 3.632725  1.5 1.04967844 3.90746784  2 5.21972132 0.958802223  2 4.62159061 1.82634306  2 3.88091111 2.5758636  2 3.02052855 3.18424606  2 2.0669806 3.632725  2 1.04967844 3.90746784  2.5 5.21972132 0.958802223  2.5 4.62159061 1.82634306  2.5 3.88091111 2.5758636  2.5 3.02052855 3.18424606  2.5 2.0669806 3.632725  2.5 1.04967844 3.90746784  3 5.21972132 0.958802223  3 4.62159061 1.82634306  3 3.88091111 2.5758636  3 3.02052855 3.18424606  3 2.0669806 3.632725  3 1.04967844 3.90746784  3.5 5.21972132 0.958802223  3.5 4.62159061 1.82634306  3.5 3.88091111 2.5758636  3.5 3.02052855 3.18424606  3.5 2.0669806 3.632725  3.5 1.04967844 3.90746784  4 5.21972132 0.958802223  4 4.62159061 1.82634306  4 3.88091111 2.5758636  4 3.02052855 3.18424606  4 2.0669806 3.632725  4 1.04967844 3.90746784  4.5 5.21972132 0.958802223  4.5 4.62159061 1.82634306  4.5 3.88091111 2.5758636  4.5 3.02052855 3.18424606  4.5 2.0669806 3.632725  4.5 1.04967844 3.90746784  5 5.21972132 0.958802223  5 4.62159061 1.82634306  5 3.88091111 2.5758636  5 3.02052855 3.18424606  5 2.0669806 3.632725  5 1.04967844 3.90746784  5.5 5.21972132 0.958802223  5.5 4.62159061 1.82634306  5.5 3.88091111 2.5758636  5.5 3.02052855 3.18424606  5.5 2.0669806 3.632725  5.5 1.04967844 3.90746784  6 5.21972132 0.958802223  6 4.62159061 1.82634306  6 3.88091111 2.5758636  6 3.02052855 3.18424606  6 2.0669806 3.632725  6 1.04967844 3.90746784  6.5 5.21972132 0.958802223  6.5 4.62159061 1.82634306  6.5 3.88091111 2.5758636  6.5 3.02052855 3.18424606  6.5 2.0669806 3.632725  6.5 1.04967844 3.90746784  7 5.21972132 0.958802223  7 4.62159061 1.82634306  7 3.88091111 2.5758636  7 3.02052855 3.18424606  7 2.0669806 3.632725  7 1.04967844 3.90746784  7.5 5.21972132 0.958802223  7.5 4.62159061 1.82634306  7.5 3.88091111 2.5758636  7.5 3.02052855 3.18424606  7.5 2.0669806 3.632725  7.5 1.04967844 3.90746784  8 5.21972132 0.958802223  8 4.62159061 1.82634306  8 3.88091111 2.5758636  8 3.02052855 3.18424606  8 2.0669806 3.632725  8 1.04967844 3.90746784  8.5 5.21972132 0.958802223  8.5 4.62159061 1.82634306  8.5 3.88091111 2.5758636  8.5 3.02052855 3.18424606  8.5 2.0669806 3.632725  8.5 1.04967844 3.90746784  9 5.21972132 0.958802223  9 4.62159061 1.82634306  9 3.88091111 2.5758636  9 3.02052855 3.18424606  9 2.0669806 3.632725  9 1.04967844 3.90746784  9.5 5.21972132 0.958802223  9.5 4.62159061 1.82634306  9.5 3.88091111 2.5758636  9.5 3.02052855 3.18424606  9.5 2.0669806 3.632725  9.5 1.04967844 3.90746784  10 5.21972132 0.958802223  10 4.62159061 1.82634306  10 3.88091111 2.5758636  10 3.02052855 3.18424606  10 2.0669806 3.632725  10 1.04967844 3.90746784  10.5 5.21972132 0.958802223  10.5 4.62159061 1.82634306  10.5 3.88091111 2.5758636  10.5 3.02052855 3.18424606  10.5 2.0669806 3.632725  10.5 1.04967844 3.90746784  11 5.21972132 0.958802223  11 4.62159061 1.82634306  11 3.88091111 2.5758636  11 3.02052855 3.18424606  11 2.0669806 3.632725  11 1.04967844 3.90746784  11.5 5.21972132 0.958802223  11.5 4.62159061 1.82634306  11.5 3.88091111 2.5758636  11.5 3.02052855 3.18424606  11.5 2.0669806 3.632725  11.5 1.04967844 3.90746784  12 5.21972132 0.958802223  12 4.62159061 1.82634306  12 3.88091111 2.5758636  12 3.02052855 3.18424606  12 2.0669806 3.632725  12 1.04967844 3.90746784  12.5 5.21972132 0.958802223  12.5 4.62159061 1.82634306  12.5 3.88091111 2.5758636  12.5 3.02052855 3.18424606  12.5 2.0669806 3.632725  12.5 1.04967844 3.90746784  13 5.21972132 0.958802223  13 4.62159061 1.82634306  13 3.88091111 2.5758636  13 3.02052855 3.18424606  13 2.0669806 3.632725  13 1.04967844 3.90746784  13.5 5.21972132 0.958802223  13.5 4.62159061 1.82634306  13.5 3.88091111 2.5758636  13.5 3.02052855 3.18424606  13.5 2.0669806 3.632725  13.5 1.04967844 3.90746784  14 5.21972132 0.958802223  14 4.62159061 1.82634306  14 3.88091111 2.5758636  14 3.02052855 3.18424606  14 2.0669806 3.632725  14 1.04967844 3.90746784  14.5 5.21972132 0.958802223  14.5 4.62159061 1.82634306  14.5 3.88091111 2.5758636  14.5 3.02052855 3.18424606  14.5 2.0669806 3.632725  14.5 1.04967844 3.90746784  15 5.21972132 0.958802223  15 4.62159061 1.82634306  15 3.88091111 2.5758636  15 3.02052855 3.18424606  15 2.0669806 3.632725  15 1.04967844 3.90746784  15.5 5.21972132 0.958802223  15.5 4.62159061 1.82634306  15.5 3.88091111 2.5758636  15.5 3.02052855 3.18424606  15.5 2.0669806 3.632725  15.5 1.04967844 3.90746784  16 5.21972132 0.958802223  16 4.62159061 1.82634306  16 3.88091111 2.5758636  16 3.02052855 3.18424606  16 2.0669806 3.632725  16 1.04967844 3.90746784  16.5 5.21972132 0.958802223  16.5 4.62159061 1.82634306  16.5 3.88091111 2.5758636  16.5 3.02052855 3.18424606  16.5 2.0669806 3.632725  16.5 1.04967844 3.90746784  17 5.21972132 0.958802223  17 4.62159061 1.82634306  17 3.88091111 2.5758636  17 3.02052855 3.18424606  17 2.0669806 3.632725  17 1.04967844 3.90746784  17.5 5.21972132 0.958802223  17.5 4.62159061 1.82634306  17.5 3.88091111 2.5758636  17.5 3.02052855 3.18424606  17.
[...]
<PointData  Vectors="f_261141-0"> 
<DataArray  type="Float64"  Name="f_261141-0"  NumberOfComponents="3" format="ascii">0.0000000000000000e+00 0.0000000000000000e+00 0.0000000000000000e+00  0.0000000000000000e+00 0.0000000000000000e+00 3.0434470406774522e-01  0.0000000000000000e+00 5.4697598571658179e-01 0.0000000000000000e+00  3.8773741575648932e+00 0.0000000000000000e+00 3.8241940682492293e+00  4.6359301223199569e+00 4.5871299953489597e-01 3.7797802959314648e+00  4.5276937056040465e+00 0.0000000000000000e+00 3.6613229452184139e+00  0.0000000000000000e+00 0.0000000000000000e+00 1.0336014100999634e-01  0.0000000000000000e+00 0.0000000000000000e+00 1.6461793873995362e-01  0.0000000000000000e+00 0.0000000000000000e+00 2.0841794695694993e-01  0.0000000000000000e+00 5.6141735135425905e-02 3.0883630024558861e-01  0.0000000000000000e+00 1.4716100175521177e-01 3.2501971056525036e-01  0.0000000000000000e+00 2.3832831405070506e-01 2.9733195854837569e-01  0.0000000000000000e+00 3.2617828273367627e-01 2.5164604676791508e-01  0.0000000000000000e+00 4.1758349928392435e-01 1.9290936173394974e-01  0.0000000000000000e+00 4.9702541258830107e-01 1.0366998214532024e-01  0.0000000000000000e+00 4.4543938925196963e-01 0.0000000000000000e+00  0.0000000000000000e+00 3.4054289785385095e-01 0.0000000000000000e+00  0.0000000000000000e+00 2.4009321251168284e-01 0.0000000000000000e+00  0.0000000000000000e+00 1.5137980287632505e-01 0.0000000000000000e+00  0.0000000000000000e+00 7.3013559908094910e-02 0.0000000000000000e+00  4.2338477530042884e-02 0.0000000000000000e+00 3.0533369315865783e-01  8.1560895740493716e-02 0.0000000000000000e+00 3.0423228539956665e-01  1.2238916877474403e-01 0.0000000000000000e+00 3.0483213743200394e-01  1.6354034531605344e-01 0.0000000000000000e+00 3.0658446462123407e-01  2.0714348313515404e-01 0.0000000000000000e+00 3.0701674683853980e-01  2.4671627443196151e-01 0.0000000000000000e+00 3.1298381488868321e-01  2.8988567509192181e-01 0.0000000000000000e+00 3.1849819422942932e-01  3.2983618865401809e-01 0.0000000000000000e+00 3.2602396650970800e-01  3.7102889626391422e-01 0.0000000000000000e+00 3.3689468956989743e-01  4.1242485518883942e-01 0.0000000000000000e+00 3.4811462520790398e-01  4.5514298109772094e-01 0.0000000000000000e+00 3.5786871778197221e-01  4.9771639071488560e-01 0.0000000000000000e+00 3.5785676871443856e-01  5.3884047970837301e-01 0.0000000000000000e+00 3.6682040195159166e-01  5.7818883894103035e-01 0.0000000000000000e+00 3.7983173973338435e-01  6.2326482544312933e-01 0.0000000000000000e+00 3.8823146250753021e-01  6.6163321996866664e-01 0.0000000000000000e+00 3.9974741325429558e-01  7.0238506807860024e-01 0.0000000000000000e+00 4.1156029690370849e-01  7.4294061042869985e-01 0.0000000000000000e+00 4.2736915567402139e-01  7.8598076422906205e-01 0.0000000000000000e+00 4.3828369423005792e-01  8.2843315431104392e-01 0.0000000000000000e+00 4.4900246946803013e-01  8.7001171534859045e-01 0.0000000000000000e+00 4.6054520255514125e-01  9.1365633718239869e-01 0.0000000000000000e+00 4.7859289439931535e-01  9.5510243728808619e-01 0.0000000000000000e+00 4.9217269177098705e-01  9.9606365553985976e-01 0.0000000000000000e+00 5.0834307074169605e-01  1.0380779187814833e+00 0.0000000000000000e+00 5.2468871778109072e-01  1.0775918955137636e+00 0.0000000000000000e+00 5.4420471119688119e-01  1.1172345005024868e+00 0.0000000000000000e+00 5.6676913959471475e-01  1.1601381862553337e+00 0.0000000000000000e+00 5.8205295467858353e-01  1.1994086588982438e+00 0.0000000000000000e+00 6.0239281908130338e-01  1.2392579472606491e+00 0.0000000000000000e+00 6.2803249009314455e-01  1.2858924066539705e+00 0.0000000000000000e+00 6.3873977578276531e-01  1.3294764510651613e+00 0.0000000000000000e+00 6.6456267458710427e-01  1.3686363865394249e+00 0.0000000000000000e+00 6.9313526582471785e-01  1.4101738057835447e+00 0.0000000000000000e+00 7.1600953659141209e-01  1.4498272817362665e+00 0.0000000000000000e+00 7.4327040283818813e-01  1.4909637500083603e+00 0.0000000000000000e+00 7.6634067558691421e-01  1.5292744007831618e+00 0.0000000000000000e+00 7.9439391885483801e-01  1.5704630285987502e+00 0.0000000000000000e+00 8.1651189626488119e-01  1.6105812728151183e+00 0.0000000000000000e+00 8.4687071887391663e-01  1.6512811769974380e+00 0.0000000000000000e+00 8.7259700912353710e-01  1.6944017731627214e+00 0.0000000000000000e+00 8.9974413402289610e-01  1.7329666851736356e+00 0.0000000000000000e+00 9.2676143355822993e-01  1.7742941038668731e+00 0.0000000000000000e+00 9.5706435853577854e-01  1.8125452113916218e+00 0.0000000000000000e+00 9.9365550098115940e-01  1.8555902817580912e+00 0.0000000000000000e+00 1.0226492884728222e+00  1.8972232732855152e+00 0.0000000000000000e+00 1.0557394959110438e+00  1.9378220699698292e+00 0.0000000000000000e+00 1.0853145693616280e+00  1.9765173479609455e+00 0.0000000000000000e+00 1.1193717624962687e+00  2.0176933491144937e+00 0.0000000000000000e+00 1.1543217043445877e+00  2.0565496097347569e+00 0.0000000000000000e+00 1.1914364733189955e+00  2.0974626873876021e+00 0.0000000000000000e+00 1.2305099486350433e+00  2.1382866889999743e+00 0.0000000000000000e+00 1.2647902374176592e+00  2.1765499205128971e+00 0.0000000000000000e+00 1.3058777726655808e+00  2.2173774759297906e+00 0.0000000000000000e+00 1.3443693077363423e+00  2.2572138070094363e+00 0.0000000000000000e+00 1.3820730227541487e+00  2.2940441567842189e+00 0.0000000000000000e+00 1.4203002472965154e+00  2.3364930649237889e+00 0.0000000000000000e+00 1.4621338088251414e+00  2.3769064102430333e+00 0.0000000000000000e+00 1.5054736418156665e+00  2.4170155592829858e+00 0.0000000000000000e+00 1.5469397769526096e+00  2.4536390893066193e+00 0.0000000000000000e+00 1.5932010403822350e+00  2.4942258074158090e+00 0.0000000000000000e+00 1.6389625127191059e+00  2.5351875240281343e+00 0.0000000000000000e+00 1.6814177549765319e+00  2.5742749566015646e+00 0.0000000000000000e+00 1.7253221679309529e+00  2.6154703205260317e+00 0.0000000000000000e+00 1.7726533399557585e+00  2.6556827300095804e+00 0.0000000000000000e+00 1.8163974106187597e+00  2.6930772414426989e+00 0.0000000000000000e+00 1.8630833276295062e+00  2.7335323109997054e+00 0.0000000000000000e+00 1.9095961935671193e+00  2.7742176532000791e+00 0.0000000000000000e+00 1.9590634872733408e+00  2.8111780884049851e+00 0.0000000000000000e+00 2.0087170404473143e+00  2.8507072124778805e+00 0.0000000000000000e+00 2.0618601357839870e+00  2.8904807372075956e+00 0.0000000000000000e+00 2.1107253230395178e+00  2.9295258137207543e+00 0.0000000000000000e+00 2.1636206572017080e+00  2.9649767327503174e+00 0.0000000000000000e+00 2.2212278774967418e+00  3.0041103535729183e+00 0.0000000000000000e+00 2.2750543845776794e+00  3.0439718730031173e+00 0.0000000000000000e+00 2.3268700942008671e+00  3.0836750989419874e+00 0.0000000000000000e+00 2.3831926347978225e+00  3.1207024887852826e+00 0.0000000000000000e+00 2.4389796204882095e+00  3.1599099914957129e+00 0.0000000000000000e+00 2.4941529023460802e+00  3.1960131359511816e+00 0.0000000000000000e+00 2.5548326426846493e+00  3.2348160276797158e+00 0.0000000000000000e+00 2.6136960948619583e+00  3.2742507059297559e+00 0.0000000000000000e+00 2.6720030513536366e+00  3.3097895219438551e+00 0.0000000000000000e+00 2.7304196676350139e+00  3.3478360156152096e+00 0.0000000000000000e+00 2.7933613705765121e+00  3.3879371154111868e+00 0.0000000000000000e+00 2.8517821598308291e+00  3.4246380951306334e+00 0.0000000000000000e+00 2.9103685381742723e+00  3.4625510703883271e+00 0.0000000000000000e+00 2.9730164224161855e+00  3.5011106115791346e+00 0.0000000000000000e+00 3.0313537719076109e+00  3.5371680654683524e+00 0.0000000000000000e+00 3.0950784505472555e+00  3.5757256184595110e+00 0.0000000000000000e+00 3.1596986723999620e+00  3.6130253028326038e+00 0.0000000000000000e+00 3.2233603300876896e+00  3.6482121600296016e+00 0.0000000000000000e+00 3.2877308123565530e+00  3.6851762852942320e+00 0.0000000000000000e+00 3.3506643809862475e+00  3.7215815181937182e+00 0.0000000000000000e+00 3.4105210399951580e+00  3.7582325470744862e+00 0.0000000000000000e+00 3.4650584648633367e+00  3.7910980064051913e+00 0.0000000000000000e+00 3.5167524923440712e+00  3.8165807571984462e+00 0.0000000000000000e+00 3.5685791356758321e+00  3.8371296493761524e+00 0.0000000000000000e+00 3.6237002533488289e+00  3.8537171609756857e+00 0.0000000000000000e+00 3.6837723499295105e+00  3.8649656017222411e+00 0.0000000000000000e+00 3.7475870559184137e+00  3.9107828619842038e+00 2.5400497255930122e-02 3.8205783473752031e+00  3.9683737026239627e+00 6.3406196483380306e-02 3.8340656520083605e+00  4.0484787813333751e+00 1.1282985500890842e-01 3.8531299317338337e+00  4.1569733531640161e+00 1.7879677733531985e-01 3.8642745555761824e+00  4.2978950758415824e+00 2.6111418750890347e-01 3.8704715127520162e+00  4.4734447878128147e+00 3.6039564185393902e-01 3.8427932256065196e+00  4.5944897156279731e+00 4.7395827504732746e-01 3.6990273813541217e+00  4.5507906571389336e+00 4.8955869820197856e-01 3.6149479475692061e+00  4.5074497744466049e+00 5.0396629549625549e-01 3.5292407856753036e+00  4.4630044726536893e+00 5.1620083807336992e-01 3.4443520480845713e+00  4.4160032323274585e+00 5.2666872089760786e-01 3.3615903896573847e+00  4.3673761113137051e+00 5.3446736858499189e-01 3.2803357089012000e+00  4.3175740459881222e+00 5.3914916795195034e-01 3.2012888137538815e+00  4.2670338187504386e+00 5.4076175948923699e-01 3.1244113708562784e+00  4.2183533310910342e+00 5.4209912707656216e-01 3.0468877845959010e+00  4.1686607259038615e+00 5.4172132598811262e-01 2.9734991968899167e+00  4.1208024138099164e+00 5.4324244413767497e-01 2.8997297874690040e+00  4.0734106255380995e+00 5.4404902275958544e-01 2.8286050455010199e+00  4.0264866542177584e+00 5.4422768383333442e-01 2.7607168588125557e+00  3.9798465816854414e+00 5.4452535487716658e-01 2.6939297703299014e+00  3.9350532350256389e+00 5.4363525757080200e-01 2.6268608993442943e+00  3.8895528173772216e+00 5.4235076457428488e-01 2.5607346201171564e+00  3.8441835911192084e+00 5.4121277717123717e-01 2.4980934673386139e+00  3.7990267724812528e+00 5.4049478573222387e-01 2.4373749798952877e+00  3.7541034211645252e+00 5.4202107501113583e-01 2.3750666443101660e+00  3.7091664257731329e+00 5.4072984471400598e-01 2.3129830730961785e+00  3.6642701804541704e+00 5.3762950004375143e-01 2.2514124273832143e+00  3.6183486307311026e+00 5.3771814296472431e-01 2.1895133143170589e+00  3.5732757601631766e+00 5.3564871516913282e-01 2.1296334421018486e+00  3.5277291622313496e+00 5.3606320662806350e-01 2.0710398594329495e+00  3.4831962766296360e+00 5.3549492330236881e-01 2.0125791222686678e+00  3.4378067944937181e+00 5.3107901440584548e-01 1.9582400174268646e+00  3.3923103315568937e+00 5.3207328145770139e-01 1.9042144910895975e+00  3.3475954621700690e+00 5.3435491125767320e-01 1.8488372247585176e+00  3.3029392407032621e+00 5.3225553572724105e-01 1.7979402996995155e+00  3.2590243932410425e+00 5.3442323188782370e-01 1.7450938833113241e+00  3.2137084941723089e+00 5.3318313295749198e-01 1.6948392308529019e+00  3.1686026971636894e+00 5.3030562725157582e-01 1.6455217419464179e+00  3.1230536531036228e+00 5.3111404510433857e-01 1.5967932016498199e+00  3.0780760491138168e+00 5.3259204336430543e-01 1.5485544620827307e+00  3.0328797418102655e+00 5.3232384622802831e-01 1.5014577500614132e+00  2.9881865377331556e+00 5.3415058272818094e-01 1.4536553661563325e+00  2.9434532494482739e+00 5.3488516317576984e-01 1.4060294340085939e+00  2.8975460646873379e+00 5.3470910438280117e-01 1.3604594329422584e+00  2.8515821890892337e+00 5.3349823684009090e-01 1.3165268969083033e+00  2.8061893297341065e+00 5.3613679025439398e-01 1.2724574425053137e+00  2.7605106166649303e+00 5.3665690561045865e-01 1.2283127034869994e+00  2.7143169093092196e+00 5.3492676309646181e-01 1.1868226412257603e+00  2.6668397926208738e+00 5.3477074646213174e-01 1.1446053847329549e+00  2.6214631949472795e+00 5.3431318122557148e-01 1.0995517904340504e+00  2.5761837087394359e+00 5.3259214265378152e-01 1.0579930890942650e+00  2.5304549622559418e+00 5.3392059669736658e-01 1.0184813769452441e+00  2.4844353225748894e+00 5.3556996559155223e-01 9.7902258192529579e-01  2.4382096852245279e+00 5.3402121184032281e-01 9.4245132245862973e-01  2.3917428310074045e+00 5.3358200576856352e-01 9.0389887312204154e-01  2.3454240185299713e+00 5.3238214234324266e-01 8.6549669207064195e-01  2.2984552621179386e+00 5.3158975457907565e-01 8.3073681447480074e-01  2.2522591936216885e+00 5.3338250030359957e-01 7.9438639810940082e-01  2.2064299698256589e+00 5.3287455714688436e-01 7.6188296686454959e-01  2.1602944802534427e+00 5.3456032002513632e-01 7.2455531916106453e-01  2.1142287372405528e+00 5.3029144180083643e-01 6.9073597667284892e-01  2.0669642652798319e+00 5.3023255829933580e-01 6.5854035482556517e-01  2.0198954928747406e+00 5.3248148375203119e-01 6.2715891231914311e-01  1.9739194175437853e+00 5.3249252760809029e-01 5.9580176273553753e-01  1.9270129676923105e+00 5.3196309523615137e-01 5.6719496299484495e-01  1.8803877216736629e+00 5.3286688774016744e-01 5.3740623970423129e-01  1.8335099363464789e+00 5.3113305664473365e-01 5.1080538833094746e-01  1.7868517414724512e+00 5.3241342246232015e-01 4.8389729560858274e-01  1.7395699042995110e+00 5.3417927865274994e-01 4.5941902927713690e-01  1.6938508439996991e+00 5.3384026061463818e-01 4.3404497905594602e-01  1.6471308662899002e+00 5.3479505786747927e-01 4.1076357383887863e-01  1.5995968414310548e+00 5.3544624688934284e-01 3.8857227135570388e-01  1.5523275386827990e+00 5.3589590606417792e-01 3.6575976270787713e-01  1.5064761558073634e+00 5.3769814275227390e-01 3.4187075774139714e-01  1.4596686737508384e+00 5.3606621504110763e-01 3.2065170771110613e-01  1.4126694405100617e+00 5.3644345806474558e-01 2.9752870764158873e-01  1.3654887423012436e+00 5.3454548668202162e-01 2.7655834107319738e-01  1.3186851294030988e+00 5.3604613636250886e-01 2.5444350687437922e-01  1.2723033935943431e+00 5.3472569727956898e-01 2.3421798037900363e-01  1.2243137980491980e+00 5.3458270034597311e-01 2.1475631953416394e-01  1.1772428990492563e+00 5.3338820193426562e-01 1.9550044692219726e-01  1.1291426689622617e+00 5.3501239928765232e-01 1.7787104410806778e-01  1.0822619708431616e+00 5.3563837224652933e-01 1.6196639969306265e-01  1.0358512796232118e+00 5.3566663842398266e-01 1.4668955761352645e-01  9.8909124434486040e-01 5.3653369969721487e-01 1.3210049013899763e-01  9.4186832546350785e-01 5.3534448584399386e-01 1.1845792908062910e-01  8.9458753117108469e-01 5.3415258328151904e-01 1.0422531270981465e-01  8.4767676310617390e-01 5.3407580716564818e-01 9.2124326978638371e-02  8.0091369642506327e-01 5.3477400412705312e-01 8.0144596373037766e-02  7.5407820622528599e-01 5.3719748616716312e-01 6.7465615819732802e-02  7.0756976350705925e-01 5.3534622459585635e-01 5.5919925153054467e-02  6.6039643719111651e-01 5.3593398856613750e-01 4.5162298229337712e-02  6.1203243706597521e-01 5.3413470362885107e-01 3.6793943173974358e-02  5.6499579033902314e-01 5.3381708455301113e-01 2.7317643105629674e-02  5.1782007430579424e-01 5.3334418227263736e-01 2.1043941573764026e-02  4.7048159339014917e-01 5.3451648320986345e-01 1.4910437226930617e-02  4.2428248497291771e-01 5.3710893653556235e-01 8.8914440982195454e-03  3.7736765320377846e-01 5.3797883661460988e-01 5.0386048095430987e-03  3.3065976481191223e-01 5.3777653583705576e-01 1.9653836938369625e-03  2.8278262129986481e-01 5.4085821025920133e-01 1.1737677745347810e-03  2.3529273126677888e-01 5.4369745047150897e-01 -3.6207375935112617e-04  1.8843341848636325e-01 5.4326194852925247e-01 9.6968153189262078e-04  1.4075684906549168e-01 5.4275945594966413e-01 1.8888623499572228e-03  9.2684180520288234e-02 5.4357626987942964e-01 0.0000000000000000e+00  4.4838404902445402e-02 5.4442929083403024e-01 0.0000000000000000e+00  4.6123245080335655e+00 3.6109904798815423e-01 3.7426007225923770e+00  4.5905541723055245e+00 2.8057023416039434e-01 3.7112896247098250e+00  4.5650916953480989e+00 1.9846667612529983e-01 3.6864344030024339e+00  4.5578659364501322e+00 1.3559882434428142e-01 3.6841384477611161e+00  4.5385944319374936e+00 6.3587231775516159e-02 3.6687500487226483e+00  4.4834826371989029e+00 0.0000000000000000e+00 3.5735857621167013e+00  4.4433476234712428e+00 0.0000000000000000e+00 3.4978543628712733e+00  4.4025272786488427e+00 0.0000000000000000e+00 3.4188086362024799e+00  4.3623441620065782e+00 0.0000000000000000e+00 3.3462618554451651e+00  4.3192458369756315e+00 0.0000000000000000e+00 3.2793306275930383e+00  4.2793975099653849e+00 0.0000000000000000e+00 3.2110137574495012e+00  4.2370661376719587e+00 0.0000000000000000e+00 3.1475014594401953e+00  4.1978321686220204e+00 0.0000000000000000e+00 3.0825251809785201e+00  4.1597791108024600e+00 0.0000000000000000e+00 3.0133272975436975e+00  4.1161704677363806e+00 0.0000000000000000e+00 2.9573139507725839e+00  4.0755225781303057e+00 0.0000000000000000e+00 2.8954113817095006e+00  4.0344249378989296e+00 0.0000000000000000e+00 2.8285139432879984e+00  3.9935776655881754e+00 0.0000000000000000e+00 2.7624073930905926e+00  3.9525860727823354e+00 0.0000000000000000e+00 2.6991181051640027e+00  3.9088385405031252e+00 0.0000000000000000e+00 2.6445386901542371e+00  3.8644502538024472e+00 0.0000000000000000e+00 2.5856308673219282e+00  3.8212934222559900e+00 0.0000000000000000e+00 2.5235244084648571e+00  3.7810060784101114e+00 0.0000000000000000e+00 2.4589525108986283e+00  3.7378855674638647e+00 0.0000000000000000e+00 2.4082222607833930e+00  3.6952406118806040e+00 0.0000000000000000e+00 2.3472583945386600e+00  3.6532865716120582e+00 0.0000000000000000e+00 2.2860855423000128e+00  3.6064530093975580e+00 0.0000000000000000e+00 2.2347741547964168e+00  3.5639624943393944e+00 0.0000000000000000e+00 2.1723907439142720e+00  3.5204888901421909e+00 0.0000000000000000e+00 2.1207671515591766e+00  3.4750846997209175e+00 0.0000000000000000e+00 2.0632103079070845e+00  3.4306578601914479e+00 0.0000000000000000e+00 2.0058473192308495e+00  3.3881812584302708e+00 0.0000000000000000e+00 1.9468398677141718e+00  3.3423995251271976e+00 0.0000000000000000e+00 1.9005539284268049e+00  3.2974950640850000e+00 0.0000000000000000e+00 1.8463068497599284e+00  3.2529651703140505e+00 0.0000000000000000e+00 1.7978739735682581e+00  3.2053897622683056e+00 0.0000000000000000e+00 1.7498335232414481e+00  3.1604893821931190e+00 0.0000000000000000e+00 1.6975486583974175e+00  3.1189180781628467e+00 0.0000000000000000e+00 1.6405011365152475e+00  3.0741147382085350e+00 0.0000000000000000e+00 1.5954282969327007e+00  3.0301406284293870e+00 0.0000000000000000e+00 1.5421913840427210e+00  2.9832364355123109e+00 0.0000000000000000e+00 1.5017322527575949e+00  2.9375203580600320e+00 0.0000000000000000e+00 1.4518291368403919e+00  2.8950139784617877e+00 0.0000000000000000e+00 1.4037771593505945e+00  2.8490761993152645e+00 0.0000000000000000e+00 1.3626785872683460e+00  2.8034394900256201e+00 0.0000000000000000e+00 1.3116420468241241e+00  2.7558147353374269e+00 0.0000000000000000e+00 1.2737381088651771e+00  2.7097844089233951e+00 0.0000000000000000e+00 1.2251826695238761e+00  2.6648770010435929e+00 0.0000000000000000e+00 1.1795899608307163e+00  2.6166960276910305e+00 0.0000000000000000e+00 1.1458441102636345e+00  2.5692946577424101e+00 0.0000000000000000e+00 1.1064136693230637e+00  2.5247290214707676e+00 0.0000000000000000e+00 1.0612270687972498e+00  2.4769911157986684e+00 0.0000000000000000e+00 1.0281942325720781e+00  2.4337155541835602e+00 0.0000000000000000e+00 9.8539833085994133e-01  2.3874615515724287e+00 0.0000000000000000e+00 9.5300120126127097e-01  2.3406999115652409e+00 0.0000000000000000e+00 9.1430422547451162e-01  2.2936450163231483e+00 0.0000000000000000e+00 8.8009076130211750e-01  2.2489469683785206e+00 0.0000000000000000e+00 8.4085858903168398e-01  2.2018208157331198e+00 0.0000000000000000e+00 8.1287293218910894e-01  2.1584249664174706e+00 0.0000000000000000e+00 7.7143428225127952e-01  2.1125112123678487e+00 0.0000000000000000e+00 7.4173496521633686e-01 