<?xml version="1.0"?>
<VTKFile type="UnstructuredGrid"  version="0.1"  >
<UnstructuredGrid>
<Piece  NumberOfPoints="3069" NumberOfCells="12882">
<Points>
<DataArray  type="Float64"  NumberOfComponents="3"  format="ascii">0 0 0  0 0 4  0 5.65685415 0  50 0 4  50 5.65685415 0  50 0 0  0 0 1  0 0 2  0 0 3  0 1.04967844 3.90746784  0 2.0669806 3.632725  0 3.02052855 3.18424606  0 3.88091111 2.5758636  0 4.62159061 1.82634306  0 5.21972132 0.958802283  0 4.71404505 0  0 3.77123618 0  0 2.82842708 0  0 1.88561809 0  0 0.942809045 0  0.5 0 4  1 0 4  1.5 0 4  2 0 4  2.5 0 4  3 0 4  3.5 0 4  4 0 4  4.5 0 4  5 0 4  5.5 0 4  6 0 4  6.5 0 4  7 0 4  7.5 0 4  8 0 4  8.5 0 4  9 0 4  9.5 0 4  10 0 4  10.5 0 4  11 0 4  11.5 0 4  12 0 4  12.5 0 4  13 0 4  13.5 0 4  14 0 4  14.5 0 4  15 0 4  15.5 0 4  16 0 4  16.5 0 4  17 0 4  17.5 0 4  18 0 4  18.5 0 4  19 0 4  19.5 0 4  20 0 4  20.5 0 4  21 0 4  21.5 0 4  22 0 4  22.5 0 4  23 0 4  23.5 0 4  24 0 4  24.5 0 4  25 0 4  25.5 0 4  26 0 4  26.5 0 4  27 0 4  27.5 0 4  28 0 4  28.5 0 4  29 0 4  29.5 0 4  30 0 4  30.5 0 4  31 0 4  31.5 0 4  32 0 4  32.5 0 4  33 0 4  33.5 0 4  34 0 4  34.5 0 4  35 0 4  35.5 0 4  36 0 4  36.5 0 4  37 0 4  37.5 0 4  38 0 4  38.5 0 4  39 0 4  39.5 0 4  40 0 4  40.5 0 4  41 0 4  41.5 0 4  42 0 4  42.5 0 4  43 0 4  43.5 0 4  44 0 4  44.5 0 4  45 0 4  45.5 0 4  46 0 4  46.5 0 4  47 0 4  47.5 0 4  48 0 4  48.5 0 4  49 0 4  49.5 0 4  50 1.04967844 3.90746784  50 2.0669806 3.632725  50 3.02052855 3.18424606  50 3.88091111 2.5758636  50 4.62159061 1.82634306  50 5.21972132 0.958802283  49.5 5.65685415 0  49 5.65685415 0  48.5 5.65685415 0  48 5.65685415 0  47.5 5.65685415 0  47 5.65685415 0  46.5 5.65685415 0  46 5.65685415 0  45.5 5.65685415 0  45 5.65685415 0  44.5 5.65685415 0  44 5.65685415 0  43.5 5.65685415 0  43 5.65685415 0  42.5 5.65685415 0  42 5.65685415 0  41.5 5.65685415 0  41 5.65685415 0  40.5 5.65685415 0  40 5.65685415 0  39.5 5.65685415 0  39 5.65685415 0  38.5 5.65685415 0  38 5.65685415 0  37.5 5.65685415 0  37 5.65685415 0  36.5 5.65685415 0  36 5.65685415 0  35.5 5.65685415 0  35 5.65685415 0  34.5 5.65685415 0  34 5.65685415 0  33.5 5.65685415 0  33 5.65685415 0  32.5 5.65685415 0  32 5.65685415 0  31.5 5.65685415 0  31 5.65685415 0  30.5 5.65685415 0  30 5.65685415 0  29.5 5.65685415 0  29 5.65685415 0  28.5 5.65685415 0  28 5.65685415 0  27.5 5.65685415 0  27 5.65685415 0  26.5 5.65685415 0  26 5.65685415 0  25.5 5.65685415 0  25 5.65685415 0  24.5 5.65685415 0  24 5.65685415 0  23.5 5.65685415 0  23 5.65685415 0  22.5 5.65685415 0  22 5.65685415 0  21.5 5.65685415 0  21 5.65685415 0  20.5 5.65685415 0  20 5.65685415 0  19.5 5.65685415 0  19 5.65685415 0  18.5 5.65685415 0  18 5.65685415 0  17.5 5.65685415 0  17 5.65685415 0  16.5 5.65685415 0  16 5.65685415 0  15.5 5.65685415 0  15 5.65685415 0  14.5 5.65685415 0  14 5.65685415 0  13.5 5.65685415 0  13 5.65685415 0  12.5 5.65685415 0  12 5.65685415 0  11.5 5.65685415 0  11 5.65685415 0  10.5 5.65685415 0  10 5.65685415 0  9.5 5.65685415 0  9 5.65685415 0  8.5 5.65685415 0  8 5.65685415 0  7.5 5.65685415 0  7 5.65685415 0  6.5 5.65685415 0  6 5.65685415 0  5.5 5.65685415 0  5 5.65685415 0  4.5 5.65685415 0  4 5.65685415 0  3.5 5.65685415 0  3 5.65685415 0  2.5 5.65685415 0  2 5.65685415 0  1.5 5.65685415 0  1 5.65685415 0  0.5 5.65685415 0  50 4.71404505 0  50 3.77123618 0  50 2.82842708 0  50 1.88561809 0  50 0.942809045 0  49.5 0 0  49 0 0  48.5 0 0  48 0 0  47.5 0 0  47 0 0  46.5 0 0  46 0 0  45.5 0 0  45 0 0  44.5 0 0  44 0 0  43.5 0 0  43 0 0  42.5 0 0  42 0 0  41.5 0 0  41 0 0  40.5 0 0  40 0 0  39.5 0 0  39 0 0  38.5 0 0  38 0 0  37.5 0 0  37 0 0  36.5 0 0  36 0 0  35.5 0 0  35 0 0  34.5 0 0  34 0 0  33.5 0 0  33 0 0  32.5 0 0  32 0 0  31.5 0 0  31 0 0  30.5 0 0  30 0 0  29.5 0 0  29 0 0  28.5 0 0  28 0 0  27.5 0 0  27 0 0  26.5 0 0  26 0 0  25.5 0 0  25 0 0  24.5 0 0  24 0 0  23.5 0 0  23 0 0  22.5 0 0  22 0 0  21.5 0 0  21 0 0  20.5 0 0  20 0 0  19.5 0 0  19 0 0  18.5 0 0  18 0 0  17.5 0 0  17 0 0  16.5 0 0  16 0 0  15.5 0 0  15 0 0  14.5 0 0  14 0 0  13.5 0 0  13 0 0  12.5 0 0  12 0 0  11.5 0 0  11 0 0  10.5 0 0  10 0 0  9.5 0 0  9 0 0  8.5 0 0  8 0 0  7.5 0 0  7 0 0  6.5 0 0  6 0 0  5.5 0 0  5 0 0  4.5 0 0  4 0 0  3.5 0 0  3 0 0  2.5 0 0  2 0 0  1.5 0 0  1 0 0  0.5 0 0  50 0 1  50 0 2  50 0 3  0 2.33524275 0.893602192  0 2.87561393 1.93323028  0 4.2367816 0.876864135  0 2.00050235 2.65534091  0 0.981494486 2.34323239  0 3.78543234 1.61830366  0 3.30545568 0.887000024  0 0.812916458 1.58408713  0 1.71948838 1.71268857  0 1.28267908 0.8650629520000001  0 1.21973121 3.10775328  0.5 5.21972132 0.958802223  0.5 4.62159061 1.82634306  0.5 3.88091111 2.5758636  0.5 3.02052855 3.18424606  0.5 2.0669806 3.632725  0.5 1.04967844 3.90746784  1 5.21972132 0.958802223  1 4.62159061 1.82634306  1 3.88091111 2.5758636  1 3.02052855 3.18424606  1 2.0669806 3.632725  1 1.04967844 3.90746784  1.5 5.21972132 0.958802223  1.5 4.62159061 1.82634306  1.5 3.88091111 2.5758636  1.5 3.02052855 3.18424606  1.5 2.0669806 3.632725  1.5 1.04967844 3.90746784  2 5.21972132 0.958802223  2 4.62159061 1.82634306  2 3.88091111 2.5758636  2 3.02052855 3.18424606  2 2.0669806 3.632725  2 1.04967844 3.90746784  2.5 5.21972132 0.958802223  2.5 4.62159061 1.82634306  2.5 3.88091111 2.5758636  2.5 3.02052855 3.18424606  2.5 2.0669806 3.632725  2.5 1.04967844 3.90746784  3 5.21972132 0.958802223  3 4.62159061 1.82634306  3 3.88091111 2.5758636  3 3.02052855 3.18424606  3 2.0669806 3.632725  3 1.04967844 3.90746784  3.5 5.21972132 0.958802223  3.5 4.62159061 1.82634306  3.5 3.88091111 2.5758636  3.5 3.02052855 3.18424606  3.5 2.0669806 3.632725  3.5 1.04967844 3.90746784  4 5.21972132 0.958802223  4 4.62159061 1.82634306  4 3.88091111 2.5758636  4 3.02052855 3.18424606  4 2.0669806 3.632725  4 1.04967844 3.90746784  4.5 5.21972132 0.958802223  4.5 4.62159061 1.82634306  4.5 3.88091111 2.5758636  4.5 3.02052855 3.18424606  4.5 2.0669806 3.632725  4.5 1.04967844 3.90746784  5 5.21972132 0.958802223  5 4.62159061 1.82634306  5 3.88091111 2.5758636  5 3.02052855 3.18424606  5 2.0669806 3.632725  5 1.04967844 3.90746784  5.5 5.21972132 0.958802223  5.5 4.62159061 1.82634306  5.5 3.88091111 2.5758636  5.5 3.02052855 3.18424606  5.5 2.0669806 3.632725  5.5 1.04967844 3.90746784  6 5.21972132 0.958802223  6 4.62159061 1.82634306  6 3.88091111 2.5758636  6 3.02052855 3.18424606  6 2.0669806 3.632725  6 1.04967844 3.90746784  6.5 5.21972132 0.958802223  6.5 4.62159061 1.82634306  6.5 3.88091111 2.5758636  6.5 3.02052855 3.18424606  6.5 2.0669806 3.632725  6.5 1.04967844 3.90746784  7 5.21972132 0.958802223  7 4.62159061 1.82634306  7 3.88091111 2.5758636  7 3.02052855 3.18424606  7 2.0669806 3.632725  7 1.04967844 3.90746784  7.5 5.21972132 0.958802223  7.5 4.62159061 1.82634306  7.5 3.88091111 2.5758636  7.5 3.02052855 3.18424606  7.5 2.0669806 3.632725  7.5 1.04967844 3.90746784  8 5.21972132 0.958802223  8 4.62159061 1.82634306  8 3.88091111 2.5758636  8 3.02052855 3.18424606  8 2.0669806 3.632725  8 1.04967844 3.90746784  8.5 5.21972132 0.958802223  8.5 4.62159061 1.82634306  8.5 3.88091111 2.5758636  8.5 3.02052855 3.18424606  8.5 2.0669806 3.632725  8.5 1.04967844 3.90746784  9 5.21972132 0.958802223  9 4.62159061 1.82634306  9 3.88091111 2.5758636  9 3.02052855 3.18424606  9 2.0669806 3.632725  9 1.04967844 3.90746784  9.5 5.21972132 0.958802223  9.5 4.62159061 1.82634306  9.5 3.88091111 2.5758636  9.5 3.02052855 3.18424606  9.5 2.0669806 3.632725  9.5 1.04967844 3.90746784  10 5.21972132 0.958802223  10 4.62159061 1.82634306  10 3.88091111 2.5758636  10 3.02052855 3.18424606  10 2.0669806 3.632725  10 1.04967844 3.90746784  10.5 5.21972132 0.958802223  10.5 4.62159061 1.82634306  10.5 3.88091111 2.5758636  10.5 3.02052855 3.18424606  10.5 2.0669806 3.632725  10.5 1.04967844 3.90746784  11 5.21972132 0.958802223  11 4.62159061 1.82634306  11 3.88091111 2.5758636  11 3.02052855 3.18424606  11 2.0669806 3.632725  11 1.04967844 3.90746784  11.5 5.21972132 0.958802223  11.5 4.62159061 1.82634306  11.5 3.88091111 2.5758636  11.5 3.02052855 3.18424606  11.5 2.0669806 3.632725  11.5 1.04967844 3.90746784  12 5.21972132 0.958802223  12 4.62159061 1.82634306  12 3.88091111 2.5758636  12 3.02052855 3.18424606  12 2.0669806 3.632725  12 1.04967844 3.90746784  12.5 5.21972132 0.958802223  12.5 4.62159061 1.82634306  12.5 3.88091111 2.5758636  12.5 3.02052855 3.18424606  12.5 2.0669806 3.632725  12.5 1.04967844 3.90746784  13 5.21972132 0.958802223  13 4.62159061 1.82634306  13 3.88091111 2.5758636  13 3.02052855 3.18424606  13 2.0669806 3.632725  13 1.04967844 3.90746784  13.5 5.21972132 0.958802223  13.5 4.62159061 1.82634306  13.5 3.88091111 2.5758636  13.5 3.02052855 3.18424606  13.5 2.0669806 3.632725  13.5 1.04967844 3.90746784  14 5.21972132 0.958802223  14 4.62159061 1.82634306  14 3.88091111 2.5758636  14 3.02052855 3.18424606  14 2.0669806 3.632725  14 1.04967844 3.90746784  14.5 5.21972132 0.958802223  14.5 4.62159061 1.82634306  14.5 3.88091111 2.5758636  14.5 3.02052855 3.18424606  14.5 2.0669806 3.632725  14.5 1.04967844 3.90746784  15 5.21972132 0.958802223  15 4.62159061 1.82634306  15 3.88091111 2.5758636  15 3.02052855 3.18424606  15 2.0669806 3.632725  15 1.04967844 3.90746784  15.5 5.21972132 0.958802223  15.5 4.62159061 1.82634306  15.5 3.88091111 2.5758636  15.5 3.02052855 3.18424606  15.5 2.0669806 3.632725  15.5 1.04967844 3.90746784  16 5.21972132 0.958802223  16 4.62159061 1.82634306  16 3.88091111 2.5758636  16 3.02052855 3.18424606  16 2.0669806 3.632725  16 1.04967844 3.90746784  16.5 5.21972132 0.958802223  16.5 4.62159061 1.82634306  16.5 3.88091111 2.5758636  16.5 3.02052855 3.18424606  16.5 2.0669806 3.632725  16.5 1.04967844 3.90746784  17 5.21972132 0.958802223  17 4.62159061 1.82634306  17 3.88091111 2.5758636  17 3.02052855 3.18424606  17 2.0669806 3.632725  17 1.04967844 3.90746784  17.5 5.21972132 0.958802223  17.5 4.62159061 1.82634306  17.5 3.88091111 2.5758636  17.5 3.02052855 3.18424606  17.
[...]
<PointData  Vectors="f_261141-0"> 
<DataArray  type="Float64"  Name="f_261141-0"  NumberOfComponents="3" format="ascii">0.0000000000000000e+00 0.0000000000000000e+00 0.0000000000000000e+00  0.0000000000000000e+00 0.0000000000000000e+00 2.3666667927905564e-02  0.0000000000000000e+00 9.2916654114374830e-02 0.0000000000000000e+00  3.4331382257204951e-01 0.0000000000000000e+00 1.8829153099559337e+00  6.9915268779754047e-01 6.7317252871023067e-02 1.9268049383588430e+00  6.6880868605495458e-01 0.0000000000000000e+00 1.8848793383059663e+00  0.0000000000000000e+00 0.0000000000000000e+00 2.2025237520292919e-02  0.0000000000000000e+00 0.0000000000000000e+00 1.7120798423189559e-02  0.0000000000000000e+00 0.0000000000000000e+00 8.6482572713999766e-03  0.0000000000000000e+00 -6.5463562832874201e-03 2.5453820029234787e-02  0.0000000000000000e+00 7.7946671013571240e-03 4.4359278125224541e-02  0.0000000000000000e+00 2.2596228420891047e-02 4.4022532358573049e-02  0.0000000000000000e+00 3.8563261678028600e-02 4.0435124707696675e-02  0.0000000000000000e+00 5.1038677738846717e-02 4.1193192301850055e-02  0.0000000000000000e+00 6.9157454504191862e-02 2.3795111698856689e-02  0.0000000000000000e+00 6.3574509059831599e-02 0.0000000000000000e+00  0.0000000000000000e+00 4.7295081485733671e-02 0.0000000000000000e+00  0.0000000000000000e+00 3.0483099695451661e-02 0.0000000000000000e+00  0.0000000000000000e+00 1.8282741122571739e-02 0.0000000000000000e+00  0.0000000000000000e+00 8.5218109585983425e-03 0.0000000000000000e+00  5.0772123558911249e-03 0.0000000000000000e+00 2.4008677433548165e-02  8.3092353532693824e-03 0.0000000000000000e+00 2.1765863333316520e-02  1.1615480138701426e-02 0.0000000000000000e+00 2.2260092516605667e-02  1.5859830516646200e-02 0.0000000000000000e+00 2.3242042838952544e-02  2.1385952042052753e-02 0.0000000000000000e+00 2.3593694105851527e-02  2.4128121470623726e-02 0.0000000000000000e+00 2.6419198365169698e-02  2.8908274392325670e-02 0.0000000000000000e+00 2.8837039961784869e-02  3.1701843084006566e-02 0.0000000000000000e+00 3.2462727360909951e-02  3.5645222519292752e-02 0.0000000000000000e+00 3.8157102521335876e-02  3.9415720636291743e-02 0.0000000000000000e+00 4.5972089669203645e-02  4.4258300156180826e-02 0.0000000000000000e+00 4.9808454207448741e-02  4.9645426397340507e-02 0.0000000000000000e+00 4.9440884770827372e-02  5.3231306573495951e-02 0.0000000000000000e+00 5.5878202861083671e-02  5.4863586498601076e-02 0.0000000000000000e+00 6.2829418927298708e-02  6.2226076679479929e-02 0.0000000000000000e+00 6.6507732455273708e-02  6.4380414588200402e-02 0.0000000000000000e+00 7.4142068526612093e-02  6.8769775451164819e-02 0.0000000000000000e+00 8.1921511256495050e-02  7.3063655576290951e-02 0.0000000000000000e+00 8.9567652438945766e-02  7.7637479777048379e-02 0.0000000000000000e+00 9.3921544142479052e-02  8.2112345380290830e-02 0.0000000000000000e+00 1.0013829579870841e-01  8.6096120880653604e-02 0.0000000000000000e+00 1.0502553185906159e-01  9.1943411685014631e-02 0.0000000000000000e+00 1.1526164493768297e-01  9.5456272619351384e-02 0.0000000000000000e+00 1.2127540093515186e-01  9.9550511098636926e-02 0.0000000000000000e+00 1.3063870339283615e-01  1.0464314645342725e-01 0.0000000000000000e+00 1.3969848405122889e-01  1.0816528137466273e-01 0.0000000000000000e+00 1.5048558896952177e-01  1.1042695054941898e-01 0.0000000000000000e+00 1.6371575812257219e-01  1.1550570582371227e-01 0.0000000000000000e+00 1.6976639533721630e-01  1.1886901860170045e-01 0.0000000000000000e+00 1.8195614288027095e-01  1.2124090875833193e-01 0.0000000000000000e+00 1.9444657977862642e-01  1.2863761819891034e-01 0.0000000000000000e+00 1.9888969978721480e-01  1.3353574327062309e-01 0.0000000000000000e+00 2.1207376560917565e-01  1.3645235261416616e-01 0.0000000000000000e+00 2.2620786115028216e-01  1.4103452904565061e-01 0.0000000000000000e+00 2.3840775280452520e-01  1.4593069687468624e-01 0.0000000000000000e+00 2.5301353949103328e-01  1.5089693147730598e-01 0.0000000000000000e+00 2.6330974227173126e-01  1.5361949405299927e-01 0.0000000000000000e+00 2.8021748738853902e-01  1.5835406621403020e-01 0.0000000000000000e+00 2.9022257212070224e-01  1.6207905218581450e-01 0.0000000000000000e+00 3.0754175716223953e-01  1.6604513403679522e-01 0.0000000000000000e+00 3.1964855096135802e-01  1.7132186376259442e-01 0.0000000000000000e+00 3.3231695619540463e-01  1.7294793933298153e-01 0.0000000000000000e+00 3.4605585536125516e-01  1.7743306196727324e-01 0.0000000000000000e+00 3.6077938442240542e-01  1.7924481582822785e-01 0.0000000000000000e+00 3.8111391299128611e-01  1.8534743191841299e-01 0.0000000000000000e+00 3.9326339309700370e-01  1.8872757567278647e-01 0.0000000000000000e+00 4.1033991989577823e-01  1.9237907709817420e-01 0.0000000000000000e+00 4.2503461321575564e-01  1.9492868295739441e-01 0.0000000000000000e+00 4.4383805060677645e-01  1.9928933071725735e-01 0.0000000000000000e+00 4.6099845309456167e-01  2.0222578503591684e-01 0.0000000000000000e+00 4.8081768092437793e-01  2.0610012756095256e-01 0.0000000000000000e+00 5.0159567022836871e-01  2.1025668284575616e-01 0.0000000000000000e+00 5.1940524624286522e-01  2.1357575551663097e-01 0.0000000000000000e+00 5.4237939417088710e-01  2.1771130421712198e-01 0.0000000000000000e+00 5.6095301771670059e-01  2.2259334767952466e-01 0.0000000000000000e+00 5.7902507161903860e-01  2.2430601599311195e-01 0.0000000000000000e+00 5.9732777015250438e-01  2.2902331818962060e-01 0.0000000000000000e+00 6.1874295444415617e-01  2.3276444580517860e-01 0.0000000000000000e+00 6.4133554021766248e-01  2.3570426894479807e-01 0.0000000000000000e+00 6.6313073816928836e-01  2.3757687146641351e-01 0.0000000000000000e+00 6.8609469686059810e-01  2.4089437296847654e-01 0.0000000000000000e+00 7.1010212464311329e-01  2.4513793984815310e-01 0.0000000000000000e+00 7.3214040124322044e-01  2.4922312580964362e-01 0.0000000000000000e+00 7.5403675208683640e-01  2.5387544947622909e-01 0.0000000000000000e+00 7.7925917472056205e-01  2.5613588850980507e-01 0.0000000000000000e+00 8.0432579243460844e-01  2.5885894369763213e-01 0.0000000000000000e+00 8.2849645212710166e-01  2.6274164791148585e-01 0.0000000000000000e+00 8.5255366785886721e-01  2.6769254386473634e-01 0.0000000000000000e+00 8.7820784475173697e-01  2.7035093925549319e-01 0.0000000000000000e+00 9.0307611533920273e-01  2.7382378635830440e-01 0.0000000000000000e+00 9.3199148015592426e-01  2.7670208802961366e-01 0.0000000000000000e+00 9.5796173612147451e-01  2.8081584228793055e-01 0.0000000000000000e+00 9.8435106657251914e-01  2.8282553365504665e-01 0.0000000000000000e+00 1.0158346095631903e+00  2.8709157371754973e-01 0.0000000000000000e+00 1.0424246416340861e+00  2.9053254263296180e-01 0.0000000000000000e+00 1.0692021104956648e+00  2.9537544222772194e-01 0.0000000000000000e+00 1.0979967395916368e+00  2.9779712546478654e-01 0.0000000000000000e+00 1.1272125986373336e+00  3.0137081302336971e-01 0.0000000000000000e+00 1.1549338912520435e+00  3.0316837764926025e-01 0.0000000000000000e+00 1.1864235660020697e+00  3.0574298881799594e-01 0.0000000000000000e+00 1.2177062605562354e+00  3.1020299039039051e-01 0.0000000000000000e+00 1.2492976185843081e+00  3.1234578305372640e-01 0.0000000000000000e+00 1.2800366371196974e+00  3.1551684465222102e-01 0.0000000000000000e+00 1.3125041871414547e+00  3.1950618842531109e-01 0.0000000000000000e+00 1.3434613295442261e+00  3.2201101445179608e-01 0.0000000000000000e+00 1.3725351267293440e+00  3.2426370859293413e-01 0.0000000000000000e+00 1.4059922974397645e+00  3.2788483359632137e-01 0.0000000000000000e+00 1.4371223985860868e+00  3.3135321990258604e-01 0.0000000000000000e+00 1.4698267933722802e+00  3.3449969409120028e-01 0.0000000000000000e+00 1.5017297392163012e+00  3.3694351936918582e-01 0.0000000000000000e+00 1.5360758742848393e+00  3.3765686075033385e-01 0.0000000000000000e+00 1.5708438313548951e+00  3.3918062579150243e-01 0.0000000000000000e+00 1.6075739154963211e+00  3.4223125947663885e-01 0.0000000000000000e+00 1.6412376445274528e+00  3.4484922846377991e-01 0.0000000000000000e+00 1.6740720191973733e+00  3.4773705768770030e-01 0.0000000000000000e+00 1.7053064756463356e+00  3.4744336443644458e-01 0.0000000000000000e+00 1.7391818675542581e+00  3.4705382359178150e-01 0.0000000000000000e+00 1.7727823812987709e+00  3.4605341364108677e-01 0.0000000000000000e+00 1.8082174067136709e+00  3.4414308711550218e-01 0.0000000000000000e+00 1.8443321170578795e+00  3.5739720364891470e-01 -3.6689439544404004e-03 1.8820724367520818e+00  3.8321414921831337e-01 -5.2757349792968075e-03 1.8868525061284784e+00  4.1921186201531890e-01 -4.7514432969096992e-03 1.8951836713882049e+00  4.7052412926591780e-01 -3.9162114403002015e-04 1.9057410471704406e+00  5.2973263215923594e-01 1.1308399268443112e-02 1.9204369181621361e+00  6.1017109751933662e-01 3.0272924030183772e-02 1.9305186737712317e+00  6.9146510638627912e-01 7.1159846987022379e-02 1.8840594156339765e+00  6.8352215608215483e-01 7.4499968046883622e-02 1.8407029541797444e+00  6.7595797316778528e-01 7.9282081815312017e-02 1.7984618368992564e+00  6.7014768664989222e-01 8.3220874245152260e-02 1.7549662209183550e+00  6.6225786499743977e-01 8.7898765975148910e-02 1.7145350416956331e+00  6.5324849673477126e-01 8.9654509857735376e-02 1.6753449387224268e+00  6.4388124036613004e-01 9.1710807512146358e-02 1.6370148612945596e+00  6.3570199292583918e-01 9.2401795047974231e-02 1.5991132526088503e+00  6.2752526200923064e-01 9.2848694243233443e-02 1.5620026092337920e+00  6.1950545701638160e-01 9.3630368959496058e-02 1.5253600303911512e+00  6.1182329455383189e-01 9.3954191259474781e-02 1.4890339226214340e+00  6.0406005091682613e-01 9.1185723193880450e-02 1.4552228376221039e+00  5.9692867586683906e-01 9.0923311115916797e-02 1.4194016561531058e+00  5.8999353787873354e-01 8.9686940204950757e-02 1.3850835000512018e+00  5.8238539545611279e-01 8.8811673602593580e-02 1.3540105050844164e+00  5.7757518388289864e-01 9.0393690482220443e-02 1.3219401115424529e+00  5.7021284608990475e-01 9.0336856792409811e-02 1.2869775907493866e+00  5.6368126587060907e-01 8.7796083669047759e-02 1.2543121856940718e+00  5.5608505548006282e-01 8.6541880022940221e-02 1.2229987747569839e+00  5.4878215912550921e-01 8.6097526103523850e-02 1.1913482761117933e+00  5.4238578767458878e-01 8.5145973848615400e-02 1.1601160256373477e+00  5.3717922165390919e-01 8.6207562525853529e-02 1.1269758136050492e+00  5.3139528626273580e-01 8.5169703253718435e-02 1.0975188284429371e+00  5.2461696146578884e-01 8.7919175848143447e-02 1.0673557201425596e+00  5.1775160712003809e-01 8.6949094460059675e-02 1.0393689236202366e+00  5.1150642190585327e-01 8.6568665941147177e-02 1.0106693644060711e+00  5.0535408286283323e-01 8.5747388650734252e-02 9.8262375950402736e-01  4.9880447429959840e-01 8.6020629860854805e-02 9.5563491968795733e-01  4.9271913110339771e-01 8.4407799600936195e-02 9.2828905097476089e-01  4.8593450513006736e-01 8.4836683771874297e-02 9.0130970194158067e-01  4.7988856887617526e-01 8.5969583948458744e-02 8.7444491750580755e-01  4.7369609509838440e-01 8.4667592269570408e-02 8.4945837467163909e-01  4.6712585984492710e-01 8.5812242022873478e-02 8.2387023565418593e-01  4.6088532597446796e-01 8.6180084576661292e-02 7.9903725268445080e-01  4.5415294250951943e-01 8.7097569881184833e-02 7.7449061019746135e-01  4.4773511081443351e-01 8.7886315508420909e-02 7.5045997799168851e-01  4.4040853203561037e-01 8.8263359822851203e-02 7.2765570966243109e-01  4.3374906747246011e-01 8.7491917318118700e-02 7.0382599947063340e-01  4.2760075745546011e-01 8.5770033729145240e-02 6.8111384229107985e-01  4.2015239306272950e-01 8.7853249069681838e-02 6.5887129274427902e-01  4.1338663133298026e-01 8.9221946040909952e-02 6.3602690065176493e-01  4.0632264041621807e-01 8.6689950363545654e-02 6.1443263250170155e-01  3.9913424123673025e-01 8.9367694796191513e-02 5.9066105626133403e-01  3.9190467374795374e-01 8.8094654942199410e-02 5.6905808365280142e-01  3.8509992735307863e-01 8.6848026553221852e-02 5.4795857569649986e-01  3.7824372907532572e-01 8.7369948645233397e-02 5.2579627531524575e-01  3.7099650236063625e-01 8.7706275652620805e-02 5.0487314745872858e-01  3.6428759774547859e-01 8.5774521311950430e-02 4.8479224006480165e-01  3.5749399287011102e-01 8.6475607684396674e-02 4.6466477645554799e-01  3.5078142857341471e-01 8.5467445029063366e-02 4.4519845595459195e-01  3.4354435426763069e-01 8.5466567252981698e-02 4.2660354570069231e-01  3.3715520246467229e-01 8.4143543916084182e-02 4.0930210714385457e-01  3.3048334963392367e-01 8.5463685389146477e-02 3.9048054375854963e-01  3.2345450688953337e-01 8.4720500567507753e-02 3.7522269694550814e-01  3.1650797047554030e-01 8.5165220127148208e-02 3.5982305907394474e-01  3.0964876412977466e-01 8.5374668269759021e-02 3.4283940207956987e-01  3.0358056385275106e-01 8.4883210136884893e-02 3.2580041943140464e-01  2.9657841085409203e-01 8.4934827899706800e-02 3.1046040116954826e-01  2.8924691524747564e-01 8.5762871136377025e-02 2.9534609671003875e-01  2.8151578520276338e-01 8.6273728062586930e-02 2.8145143064470263e-01  2.7486479492056576e-01 8.4539642584050431e-02 2.6738913898775951e-01  2.6731833706841124e-01 8.4800270537982225e-02 2.5469007049384151e-01  2.6058375277752993e-01 8.5146433496205029e-02 2.4014221918054077e-01  2.5286286174318012e-01 8.5381620832613470e-02 2.2766835741020572e-01  2.4617634111636374e-01 8.5175893745539411e-02 2.1455470025300036e-01  2.3960794640861394e-01 8.7225876119093368e-02 2.0103579943817623e-01  2.3225391823250965e-01 8.5731814790539262e-02 1.9167477544267247e-01  2.2531043112589053e-01 8.7276290298838100e-02 1.8034399477695909e-01  2.1783353640041173e-01 8.6521167855175482e-02 1.6960832696300010e-01  2.1057974716374292e-01 8.6931977483611880e-02 1.5849337272060218e-01  2.0399428760844124e-01 8.6651169588070745e-02 1.4699966567082029e-01  1.9730951071738281e-01 8.6440787903385483e-02 1.3675836683525980e-01  1.9025080685023671e-01 8.5940314835888723e-02 1.2731978370433583e-01  1.8368349396794717e-01 8.6182471377912059e-02 1.1710730226932671e-01  1.7698785057935085e-01 8.5648377134438097e-02 1.0776330449969926e-01  1.7021039194113161e-01 8.6823023453862988e-02 9.7698929246002680e-02  1.6276835063531334e-01 8.6589715613304655e-02 8.9419313292992436e-02  1.5478368955089875e-01 8.6596682697502939e-02 8.1080807605474994e-02  1.4800617003397246e-01 8.6309482830335321e-02 7.3772715697961289e-02  1.4140339436639890e-01 8.7789366528973567e-02 6.4700176181559113e-02  1.3446668108692938e-01 8.6358680218500419e-02 5.8499000613585407e-02  1.2759052741715868e-01 8.5629775030935454e-02 5.1461716769484557e-02  1.2032926206791468e-01 8.8097384246801372e-02 4.3627467637191740e-02  1.1317171994859170e-01 8.7399596517080208e-02 3.8976468664766936e-02  1.0529350043490532e-01 8.7959922769643317e-02 3.5354391747663041e-02  9.8304691517949683e-02 8.8337638575025773e-02 2.9573202144162952e-02  9.1478137588735742e-02 8.9184554142700129e-02 2.3319981762327323e-02  8.4187965535382839e-02 8.7565644118728914e-02 2.0775597823312467e-02  7.7512083750973848e-02 8.8639179377495464e-02 1.6209488954879340e-02  7.0729031266963838e-02 8.7929846887203997e-02 1.2966890725763760e-02  6.3709033375357313e-02 8.9191269093025327e-02 9.8134967205706532e-03  5.6878361154515118e-02 8.9514975932382945e-02 7.0811762962791850e-03  4.9842511129631881e-02 8.9944942617818394e-02 5.0356467344630975e-03  4.3409216249328281e-02 8.9723371409944463e-02 1.6371537387222742e-03  3.6234600835154916e-02 9.1044128288948284e-02 -3.4653333003991895e-04  2.9089698473428433e-02 8.9522425425983140e-02 2.6309032774537820e-04  2.2022566822911916e-02 9.2721263590515690e-02 -5.3664903524610317e-04  1.4300339423187966e-02 9.3246634723327906e-02 0.0000000000000000e+00  6.8814953775877281e-03 9.3270475484353965e-02 0.0000000000000000e+00  6.9519984365776899e-01 4.7056347860076737e-02 1.9119446670489058e+00  6.8658452887936083e-01 3.3648910667086862e-02 1.9017770320239820e+00  6.7688893559154595e-01 2.1381071209703666e-02 1.8913053464801814e+00  6.8008487738990164e-01 1.6758645646619347e-02 1.8934101969620267e+00  6.7244402559301086e-01 6.1961046133403837e-03 1.8882415981437763e+00  6.5898710778983882e-01 0.0000000000000000e+00 1.8405107237070844e+00  6.5202755140753876e-01 0.0000000000000000e+00 1.8021426308773645e+00  6.4442834953960138e-01 0.0000000000000000e+00 1.7620833951280734e+00  6.3830027974091574e-01 0.0000000000000000e+00 1.7256095035276484e+00  6.2968247430365831e-01 0.0000000000000000e+00 1.6935870155863371e+00  6.2529727062839657e-01 0.0000000000000000e+00 1.6569287705785274e+00  6.1881204798141898e-01 0.0000000000000000e+00 1.6251932356229739e+00  6.1335647765493817e-01 0.0000000000000000e+00 1.5925710197774219e+00  6.1032171987645512e-01 0.0000000000000000e+00 1.5542335815369170e+00  6.0365970259203350e-01 0.0000000000000000e+00 1.5258716691237912e+00  5.9785901418693865e-01 0.0000000000000000e+00 1.4957334571321770e+00  5.9284107609892311e-01 0.0000000000000000e+00 1.4601537519982128e+00  5.8794376074396215e-01 0.0000000000000000e+00 1.4257338900163399e+00  5.8440294473985466e-01 0.0000000000000000e+00 1.3899518653269474e+00  5.7783494414566483e-01 0.0000000000000000e+00 1.3640082649206631e+00  5.6923724456180236e-01 0.0000000000000000e+00 1.3333872091020007e+00  5.6181462396501936e-01 0.0000000000000000e+00 1.3024214160227321e+00  5.5912951667269262e-01 0.0000000000000000e+00 1.2649494997047275e+00  5.5422709848507679e-01 0.0000000000000000e+00 1.2402195207158113e+00  5.4720649517162456e-01 0.0000000000000000e+00 1.2059413117378717e+00  5.4335882787365741e-01 0.0000000000000000e+00 1.1720567104632138e+00  5.3393498098566561e-01 0.0000000000000000e+00 1.1498339926260261e+00  5.2941531218328908e-01 0.0000000000000000e+00 1.1159884485708507e+00  5.2509435960491235e-01 0.0000000000000000e+00 1.0905893423089585e+00  5.1621797328806640e-01 0.0000000000000000e+00 1.0602728457889223e+00  5.0877355424172099e-01 0.0000000000000000e+00 1.0313240816097859e+00  5.0458431839248963e-01 0.0000000000000000e+00 9.9668196573750767e-01  4.9764139070974783e-01 0.0000000000000000e+00 9.7447201101753156e-01  4.9186681333671439e-01 0.0000000000000000e+00 9.4532263792451232e-01  4.8672864200463928e-01 0.0000000000000000e+00 9.2113903151681520e-01  4.7751185069616975e-01 0.0000000000000000e+00 8.9671120036976470e-01  4.6906635713958073e-01 0.0000000000000000e+00 8.7063733809453692e-01  4.6589094220110022e-01 0.0000000000000000e+00 8.3898006593404295e-01  4.5977084812216340e-01 0.0000000000000000e+00 8.1775328972476713e-01  4.5461771471199730e-01 0.0000000000000000e+00 7.8768199271349881e-01  4.4649514029855092e-01 0.0000000000000000e+00 7.6990913388679161e-01  4.3858315245023027e-01 0.0000000000000000e+00 7.4213559143411290e-01  4.3427529352051092e-01 0.0000000000000000e+00 7.1643852959090448e-01  4.2742380417785031e-01 0.0000000000000000e+00 6.9732668038262724e-01  4.2098641231320455e-01 0.0000000000000000e+00 6.6887071250095453e-01  4.1259107565269276e-01 0.0000000000000000e+00 6.5230845641217949e-01  4.0404101127832259e-01 0.0000000000000000e+00 6.2632248150353942e-01  3.9949138786027982e-01 0.0000000000000000e+00 6.0048905929882745e-01  3.9166034891952911e-01 0.0000000000000000e+00 5.8583221786801309e-01  3.8278184774337998e-01 0.0000000000000000e+00 5.6693620197578531e-01  3.7766056666061648e-01 0.0000000000000000e+00 5.4129331388728930e-01  3.6992732291545571e-01 0.0000000000000000e+00 5.2702315785843556e-01  3.6573352356031025e-01 0.0000000000000000e+00 5.0208230645552054e-01  3.5844238286437935e-01 0.0000000000000000e+00 4.8744845320378355e-01  3.5018450391645778e-01 0.0000000000000000e+00 4.6798089544880667e-01  3.4158510162616312e-01 0.0000000000000000e+00 4.4884330054634142e-01  3.3622913745021643e-01 0.0000000000000000e+00 4.2696146811915942e-01  3.2778982241291876e-01 0.0000000000000000e+00 4.1596829411485448e-01  3.2287753041414735e-01 0.0000000000000000e+00 3.9320205655821716e-01  3.1575580318603641e-01 0.0000000000000000e+00 3.805424048488378