<?xml version="1.0"?>
<VTKFile type="UnstructuredGrid"  version="0.1"  >
<UnstructuredGrid>
<Piece  NumberOfPoints="3069" NumberOfCells="12882">
<Points>
<DataArray  type="Float64"  NumberOfComponents="3"  format="ascii">0 0 0  0 0 4  0 5.65685415 0  50 0 4  50 5.65685415 0  50 0 0  0 0 1  0 0 2  0 0 3  0 1.04967844 3.90746784  0 2.0669806 3.632725  0 3.02052855 3.18424606  0 3.88091111 2.5758636  0 4.62159061 1.82634306  0 5.21972132 0.958802283  0 4.71404505 0  0 3.77123618 0  0 2.82842708 0  0 1.88561809 0  0 0.942809045 0  0.5 0 4  1 0 4  1.5 0 4  2 0 4  2.5 0 4  3 0 4  3.5 0 4  4 0 4  4.5 0 4  5 0 4  5.5 0 4  6 0 4  6.5 0 4  7 0 4  7.5 0 4  8 0 4  8.5 0 4  9 0 4  9.5 0 4  10 0 4  10.5 0 4  11 0 4  11.5 0 4  12 0 4  12.5 0 4  13 0 4  13.5 0 4  14 0 4  14.5 0 4  15 0 4  15.5 0 4  16 0 4  16.5 0 4  17 0 4  17.5 0 4  18 0 4  18.5 0 4  19 0 4  19.5 0 4  20 0 4  20.5 0 4  21 0 4  21.5 0 4  22 0 4  22.5 0 4  23 0 4  23.5 0 4  24 0 4  24.5 0 4  25 0 4  25.5 0 4  26 0 4  26.5 0 4  27 0 4  27.5 0 4  28 0 4  28.5 0 4  29 0 4  29.5 0 4  30 0 4  30.5 0 4  31 0 4  31.5 0 4  32 0 4  32.5 0 4  33 0 4  33.5 0 4  34 0 4  34.5 0 4  35 0 4  35.5 0 4  36 0 4  36.5 0 4  37 0 4  37.5 0 4  38 0 4  38.5 0 4  39 0 4  39.5 0 4  40 0 4  40.5 0 4  41 0 4  41.5 0 4  42 0 4  42.5 0 4  43 0 4  43.5 0 4  44 0 4  44.5 0 4  45 0 4  45.5 0 4  46 0 4  46.5 0 4  47 0 4  47.5 0 4  48 0 4  48.5 0 4  49 0 4  49.5 0 4  50 1.04967844 3.90746784  50 2.0669806 3.632725  50 3.02052855 3.18424606  50 3.88091111 2.5758636  50 4.62159061 1.82634306  50 5.21972132 0.958802283  49.5 5.65685415 0  49 5.65685415 0  48.5 5.65685415 0  48 5.65685415 0  47.5 5.65685415 0  47 5.65685415 0  46.5 5.65685415 0  46 5.65685415 0  45.5 5.65685415 0  45 5.65685415 0  44.5 5.65685415 0  44 5.65685415 0  43.5 5.65685415 0  43 5.65685415 0  42.5 5.65685415 0  42 5.65685415 0  41.5 5.65685415 0  41 5.65685415 0  40.5 5.65685415 0  40 5.65685415 0  39.5 5.65685415 0  39 5.65685415 0  38.5 5.65685415 0  38 5.65685415 0  37.5 5.65685415 0  37 5.65685415 0  36.5 5.65685415 0  36 5.65685415 0  35.5 5.65685415 0  35 5.65685415 0  34.5 5.65685415 0  34 5.65685415 0  33.5 5.65685415 0  33 5.65685415 0  32.5 5.65685415 0  32 5.65685415 0  31.5 5.65685415 0  31 5.65685415 0  30.5 5.65685415 0  30 5.65685415 0  29.5 5.65685415 0  29 5.65685415 0  28.5 5.65685415 0  28 5.65685415 0  27.5 5.65685415 0  27 5.65685415 0  26.5 5.65685415 0  26 5.65685415 0  25.5 5.65685415 0  25 5.65685415 0  24.5 5.65685415 0  24 5.65685415 0  23.5 5.65685415 0  23 5.65685415 0  22.5 5.65685415 0  22 5.65685415 0  21.5 5.65685415 0  21 5.65685415 0  20.5 5.65685415 0  20 5.65685415 0  19.5 5.65685415 0  19 5.65685415 0  18.5 5.65685415 0  18 5.65685415 0  17.5 5.65685415 0  17 5.65685415 0  16.5 5.65685415 0  16 5.65685415 0  15.5 5.65685415 0  15 5.65685415 0  14.5 5.65685415 0  14 5.65685415 0  13.5 5.65685415 0  13 5.65685415 0  12.5 5.65685415 0  12 5.65685415 0  11.5 5.65685415 0  11 5.65685415 0  10.5 5.65685415 0  10 5.65685415 0  9.5 5.65685415 0  9 5.65685415 0  8.5 5.65685415 0  8 5.65685415 0  7.5 5.65685415 0  7 5.65685415 0  6.5 5.65685415 0  6 5.65685415 0  5.5 5.65685415 0  5 5.65685415 0  4.5 5.65685415 0  4 5.65685415 0  3.5 5.65685415 0  3 5.65685415 0  2.5 5.65685415 0  2 5.65685415 0  1.5 5.65685415 0  1 5.65685415 0  0.5 5.65685415 0  50 4.71404505 0  50 3.77123618 0  50 2.82842708 0  50 1.88561809 0  50 0.942809045 0  49.5 0 0  49 0 0  48.5 0 0  48 0 0  47.5 0 0  47 0 0  46.5 0 0  46 0 0  45.5 0 0  45 0 0  44.5 0 0  44 0 0  43.5 0 0  43 0 0  42.5 0 0  42 0 0  41.5 0 0  41 0 0  40.5 0 0  40 0 0  39.5 0 0  39 0 0  38.5 0 0  38 0 0  37.5 0 0  37 0 0  36.5 0 0  36 0 0  35.5 0 0  35 0 0  34.5 0 0  34 0 0  33.5 0 0  33 0 0  32.5 0 0  32 0 0  31.5 0 0  31 0 0  30.5 0 0  30 0 0  29.5 0 0  29 0 0  28.5 0 0  28 0 0  27.5 0 0  27 0 0  26.5 0 0  26 0 0  25.5 0 0  25 0 0  24.5 0 0  24 0 0  23.5 0 0  23 0 0  22.5 0 0  22 0 0  21.5 0 0  21 0 0  20.5 0 0  20 0 0  19.5 0 0  19 0 0  18.5 0 0  18 0 0  17.5 0 0  17 0 0  16.5 0 0  16 0 0  15.5 0 0  15 0 0  14.5 0 0  14 0 0  13.5 0 0  13 0 0  12.5 0 0  12 0 0  11.5 0 0  11 0 0  10.5 0 0  10 0 0  9.5 0 0  9 0 0  8.5 0 0  8 0 0  7.5 0 0  7 0 0  6.5 0 0  6 0 0  5.5 0 0  5 0 0  4.5 0 0  4 0 0  3.5 0 0  3 0 0  2.5 0 0  2 0 0  1.5 0 0  1 0 0  0.5 0 0  50 0 1  50 0 2  50 0 3  0 2.33524275 0.893602192  0 2.87561393 1.93323028  0 4.2367816 0.876864135  0 2.00050235 2.65534091  0 0.981494486 2.34323239  0 3.78543234 1.61830366  0 3.30545568 0.887000024  0 0.812916458 1.58408713  0 1.71948838 1.71268857  0 1.28267908 0.8650629520000001  0 1.21973121 3.10775328  0.5 5.21972132 0.958802223  0.5 4.62159061 1.82634306  0.5 3.88091111 2.5758636  0.5 3.02052855 3.18424606  0.5 2.0669806 3.632725  0.5 1.04967844 3.90746784  1 5.21972132 0.958802223  1 4.62159061 1.82634306  1 3.88091111 2.5758636  1 3.02052855 3.18424606  1 2.0669806 3.632725  1 1.04967844 3.90746784  1.5 5.21972132 0.958802223  1.5 4.62159061 1.82634306  1.5 3.88091111 2.5758636  1.5 3.02052855 3.18424606  1.5 2.0669806 3.632725  1.5 1.04967844 3.90746784  2 5.21972132 0.958802223  2 4.62159061 1.82634306  2 3.88091111 2.5758636  2 3.02052855 3.18424606  2 2.0669806 3.632725  2 1.04967844 3.90746784  2.5 5.21972132 0.958802223  2.5 4.62159061 1.82634306  2.5 3.88091111 2.5758636  2.5 3.02052855 3.18424606  2.5 2.0669806 3.632725  2.5 1.04967844 3.90746784  3 5.21972132 0.958802223  3 4.62159061 1.82634306  3 3.88091111 2.5758636  3 3.02052855 3.18424606  3 2.0669806 3.632725  3 1.04967844 3.90746784  3.5 5.21972132 0.958802223  3.5 4.62159061 1.82634306  3.5 3.88091111 2.5758636  3.5 3.02052855 3.18424606  3.5 2.0669806 3.632725  3.5 1.04967844 3.90746784  4 5.21972132 0.958802223  4 4.62159061 1.82634306  4 3.88091111 2.5758636  4 3.02052855 3.18424606  4 2.0669806 3.632725  4 1.04967844 3.90746784  4.5 5.21972132 0.958802223  4.5 4.62159061 1.82634306  4.5 3.88091111 2.5758636  4.5 3.02052855 3.18424606  4.5 2.0669806 3.632725  4.5 1.04967844 3.90746784  5 5.21972132 0.958802223  5 4.62159061 1.82634306  5 3.88091111 2.5758636  5 3.02052855 3.18424606  5 2.0669806 3.632725  5 1.04967844 3.90746784  5.5 5.21972132 0.958802223  5.5 4.62159061 1.82634306  5.5 3.88091111 2.5758636  5.5 3.02052855 3.18424606  5.5 2.0669806 3.632725  5.5 1.04967844 3.90746784  6 5.21972132 0.958802223  6 4.62159061 1.82634306  6 3.88091111 2.5758636  6 3.02052855 3.18424606  6 2.0669806 3.632725  6 1.04967844 3.90746784  6.5 5.21972132 0.958802223  6.5 4.62159061 1.82634306  6.5 3.88091111 2.5758636  6.5 3.02052855 3.18424606  6.5 2.0669806 3.632725  6.5 1.04967844 3.90746784  7 5.21972132 0.958802223  7 4.62159061 1.82634306  7 3.88091111 2.5758636  7 3.02052855 3.18424606  7 2.0669806 3.632725  7 1.04967844 3.90746784  7.5 5.21972132 0.958802223  7.5 4.62159061 1.82634306  7.5 3.88091111 2.5758636  7.5 3.02052855 3.18424606  7.5 2.0669806 3.632725  7.5 1.04967844 3.90746784  8 5.21972132 0.958802223  8 4.62159061 1.82634306  8 3.88091111 2.5758636  8 3.02052855 3.18424606  8 2.0669806 3.632725  8 1.04967844 3.90746784  8.5 5.21972132 0.958802223  8.5 4.62159061 1.82634306  8.5 3.88091111 2.5758636  8.5 3.02052855 3.18424606  8.5 2.0669806 3.632725  8.5 1.04967844 3.90746784  9 5.21972132 0.958802223  9 4.62159061 1.82634306  9 3.88091111 2.5758636  9 3.02052855 3.18424606  9 2.0669806 3.632725  9 1.04967844 3.90746784  9.5 5.21972132 0.958802223  9.5 4.62159061 1.82634306  9.5 3.88091111 2.5758636  9.5 3.02052855 3.18424606  9.5 2.0669806 3.632725  9.5 1.04967844 3.90746784  10 5.21972132 0.958802223  10 4.62159061 1.82634306  10 3.88091111 2.5758636  10 3.02052855 3.18424606  10 2.0669806 3.632725  10 1.04967844 3.90746784  10.5 5.21972132 0.958802223  10.5 4.62159061 1.82634306  10.5 3.88091111 2.5758636  10.5 3.02052855 3.18424606  10.5 2.0669806 3.632725  10.5 1.04967844 3.90746784  11 5.21972132 0.958802223  11 4.62159061 1.82634306  11 3.88091111 2.5758636  11 3.02052855 3.18424606  11 2.0669806 3.632725  11 1.04967844 3.90746784  11.5 5.21972132 0.958802223  11.5 4.62159061 1.82634306  11.5 3.88091111 2.5758636  11.5 3.02052855 3.18424606  11.5 2.0669806 3.632725  11.5 1.04967844 3.90746784  12 5.21972132 0.958802223  12 4.62159061 1.82634306  12 3.88091111 2.5758636  12 3.02052855 3.18424606  12 2.0669806 3.632725  12 1.04967844 3.90746784  12.5 5.21972132 0.958802223  12.5 4.62159061 1.82634306  12.5 3.88091111 2.5758636  12.5 3.02052855 3.18424606  12.5 2.0669806 3.632725  12.5 1.04967844 3.90746784  13 5.21972132 0.958802223  13 4.62159061 1.82634306  13 3.88091111 2.5758636  13 3.02052855 3.18424606  13 2.0669806 3.632725  13 1.04967844 3.90746784  13.5 5.21972132 0.958802223  13.5 4.62159061 1.82634306  13.5 3.88091111 2.5758636  13.5 3.02052855 3.18424606  13.5 2.0669806 3.632725  13.5 1.04967844 3.90746784  14 5.21972132 0.958802223  14 4.62159061 1.82634306  14 3.88091111 2.5758636  14 3.02052855 3.18424606  14 2.0669806 3.632725  14 1.04967844 3.90746784  14.5 5.21972132 0.958802223  14.5 4.62159061 1.82634306  14.5 3.88091111 2.5758636  14.5 3.02052855 3.18424606  14.5 2.0669806 3.632725  14.5 1.04967844 3.90746784  15 5.21972132 0.958802223  15 4.62159061 1.82634306  15 3.88091111 2.5758636  15 3.02052855 3.18424606  15 2.0669806 3.632725  15 1.04967844 3.90746784  15.5 5.21972132 0.958802223  15.5 4.62159061 1.82634306  15.5 3.88091111 2.5758636  15.5 3.02052855 3.18424606  15.5 2.0669806 3.632725  15.5 1.04967844 3.90746784  16 5.21972132 0.958802223  16 4.62159061 1.82634306  16 3.88091111 2.5758636  16 3.02052855 3.18424606  16 2.0669806 3.632725  16 1.04967844 3.90746784  16.5 5.21972132 0.958802223  16.5 4.62159061 1.82634306  16.5 3.88091111 2.5758636  16.5 3.02052855 3.18424606  16.5 2.0669806 3.632725  16.5 1.04967844 3.90746784  17 5.21972132 0.958802223  17 4.62159061 1.82634306  17 3.88091111 2.5758636  17 3.02052855 3.18424606  17 2.0669806 3.632725  17 1.04967844 3.90746784  17.5 5.21972132 0.958802223  17.5 4.62159061 1.82634306  17.5 3.88091111 2.5758636  17.5 3.02052855 3.18424606  17.
[...]
<PointData  Vectors="f_261141-0"> 
<DataArray  type="Float64"  Name="f_261141-0"  NumberOfComponents="3" format="ascii">0.0000000000000000e+00 0.0000000000000000e+00 0.0000000000000000e+00  0.0000000000000000e+00 0.0000000000000000e+00 7.4183821244092585e-01  0.0000000000000000e+00 1.0282998405003299e+00 0.0000000000000000e+00  9.3124022273631049e+00 0.0000000000000000e+00 2.2672670910763434e-01  9.0727855112756757e+00 1.0739107174524938e+00 -6.8931265466832214e-01  9.1365152004129850e+00 0.0000000000000000e+00 -6.2227400675841060e-01  0.0000000000000000e+00 0.0000000000000000e+00 1.7938527444264366e-01  0.0000000000000000e+00 0.0000000000000000e+00 3.6846561681577789e-01  0.0000000000000000e+00 0.0000000000000000e+00 5.6047815628987252e-01  0.0000000000000000e+00 2.0030282434143754e-01 7.2211027302325193e-01  0.0000000000000000e+00 3.8520334591613381e-01 6.6424204399866249e-01  0.0000000000000000e+00 5.5851985831513440e-01 5.8008592627222988e-01  0.0000000000000000e+00 7.1340173249139371e-01 4.6757363525178014e-01  0.0000000000000000e+00 8.4591392969503620e-01 3.2900268000519961e-01  0.0000000000000000e+00 9.5205169242898180e-01 1.7234413692993908e-01  0.0000000000000000e+00 8.5947961821593299e-01 0.0000000000000000e+00  0.0000000000000000e+00 6.8962971343004398e-01 0.0000000000000000e+00  0.0000000000000000e+00 5.1957492269525063e-01 0.0000000000000000e+00  0.0000000000000000e+00 3.4855648853842297e-01 0.0000000000000000e+00  0.0000000000000000e+00 1.7526603424251458e-01 0.0000000000000000e+00  9.1847520451735054e-02 0.0000000000000000e+00 7.4222164886132913e-01  1.8413711160061830e-01 0.0000000000000000e+00 7.4232559151699373e-01  2.7640803871152825e-01 0.0000000000000000e+00 7.4260620589669446e-01  3.6901646531659593e-01 0.0000000000000000e+00 7.4186118234462295e-01  4.6036135599271638e-01 0.0000000000000000e+00 7.4316194472417918e-01  5.5324624650906928e-01 0.0000000000000000e+00 7.4132213223489840e-01  6.4478869065439781e-01 0.0000000000000000e+00 7.4093909646305012e-01  7.3767801403435729e-01 0.0000000000000000e+00 7.3873893049623374e-01  8.2984693028672252e-01 0.0000000000000000e+00 7.3695842554333946e-01  9.2189972714758739e-01 0.0000000000000000e+00 7.3474837654706360e-01  1.0136704597327830e+00 0.0000000000000000e+00 7.3376827298479763e-01  1.1058063712891300e+00 0.0000000000000000e+00 7.3351756481856500e-01  1.1980423056476599e+00 0.0000000000000000e+00 7.3236248236658630e-01  1.2910999156547249e+00 0.0000000000000000e+00 7.2921550963905413e-01  1.3824105599933276e+00 0.0000000000000000e+00 7.2855676970367611e-01  1.4753912864136036e+00 0.0000000000000000e+00 7.2618028928200995e-01  1.5675128523195709e+00 0.0000000000000000e+00 7.2399530164815817e-01  1.6597598142795522e+00 0.0000000000000000e+00 7.2138980876528658e-01  1.7515798100357725e+00 0.0000000000000000e+00 7.1987229249616358e-01  1.8434818060702554e+00 0.0000000000000000e+00 7.1794446088407948e-01  1.9354567720257512e+00 0.0000000000000000e+00 7.1696900995337531e-01  2.0273308431057511e+00 0.0000000000000000e+00 7.1347248801389962e-01  2.1197124076456921e+00 0.0000000000000000e+00 7.1155370707520837e-01  2.2119699031908642e+00 0.0000000000000000e+00 7.0832385532819708e-01  2.3036519922785912e+00 0.0000000000000000e+00 7.0657252061278419e-01  2.3964025476996658e+00 0.0000000000000000e+00 7.0241665083977911e-01  2.4888002664382811e+00 0.0000000000000000e+00 6.9863359736491182e-01  2.5804783198395662e+00 0.0000000000000000e+00 6.9634928341831082e-01  2.6728944824062166e+00 0.0000000000000000e+00 6.9258742142735064e-01  2.7655610322434852e+00 0.0000000000000000e+00 6.8747995261975836e-01  2.8560519898084489e+00 0.0000000000000000e+00 6.8746574413077011e-01  2.9477539141102462e+00 0.0000000000000000e+00 6.8260106073696492e-01  3.0401287002171369e+00 0.0000000000000000e+00 6.7799712976760595e-01  3.1325413737890835e+00 0.0000000000000000e+00 6.7340214580160640e-01  3.2253237028951500e+00 0.0000000000000000e+00 6.6872629231190173e-01  3.3177307193275025e+00 0.0000000000000000e+00 6.6466813726961138e-01  3.4103558805707577e+00 0.0000000000000000e+00 6.6030276616272598e-01  3.5022152911112641e+00 0.0000000000000000e+00 6.5707367256647731e-01  3.5948530545621531e+00 0.0000000000000000e+00 6.5110460558697869e-01  3.6867887874538225e+00 0.0000000000000000e+00 6.4711744494200418e-01  3.7780595200326221e+00 0.0000000000000000e+00 6.4347120255369006e-01  3.8708318200835494e+00 0.0000000000000000e+00 6.3866215040719521e-01  3.9624361307990865e+00 0.0000000000000000e+00 6.3396074273523584e-01  4.0556312441952587e+00 0.0000000000000000e+00 6.2635369801844143e-01  4.1469746917057826e+00 0.0000000000000000e+00 6.2184376012763554e-01  4.2388993004970157e+00 0.0000000000000000e+00 6.1613403686566581e-01  4.3309161249567927e+00 0.0000000000000000e+00 6.1159480396580912e-01  4.4233889708433614e+00 0.0000000000000000e+00 6.0543118506487015e-01  4.5154583425780066e+00 0.0000000000000000e+00 5.9997809967374149e-01  4.6079028836475295e+00 0.0000000000000000e+00 5.9371739434700510e-01  4.7003402832540147e+00 0.0000000000000000e+00 5.8686936833115211e-01  4.7920257938060518e+00 0.0000000000000000e+00 5.8182885165359510e-01  4.8846465623333870e+00 0.0000000000000000e+00 5.7414647386668749e-01  4.9762349644998265e+00 0.0000000000000000e+00 5.6883773417162953e-01  5.0684863968863647e+00 0.0000000000000000e+00 5.6178369324516575e-01  5.1614393611132208e+00 0.0000000000000000e+00 5.5504326195587905e-01  5.2534461735609508e+00 0.0000000000000000e+00 5.4781204722324317e-01  5.3451834457745688e+00 0.0000000000000000e+00 5.4125312982344775e-01  5.4372547605410615e+00 0.0000000000000000e+00 5.3520934703699430e-01  5.5299795867829529e+00 0.0000000000000000e+00 5.2675747859804767e-01  5.6221247103037824e+00 0.0000000000000000e+00 5.1815648865431474e-01  5.7138040007682971e+00 0.0000000000000000e+00 5.1203256670765662e-01  5.8061652723877053e+00 0.0000000000000000e+00 5.0373253611089419e-01  5.8984385431747883e+00 0.0000000000000000e+00 4.9562601950565371e-01  5.9900535710482217e+00 0.0000000000000000e+00 4.8963776079199378e-01  6.0828389121256787e+00 0.0000000000000000e+00 4.8097216194891129e-01  6.1752226000151449e+00 0.0000000000000000e+00 4.7311846559919524e-01  6.2668853496156842e+00 0.0000000000000000e+00 4.6513966728220490e-01  6.3593912326301503e+00 0.0000000000000000e+00 4.5593063017348956e-01  6.4512007782250098e+00 0.0000000000000000e+00 4.4718885140453823e-01  6.5431004608473788e+00 0.0000000000000000e+00 4.3921282402102541e-01  6.6351563264081124e+00 0.0000000000000000e+00 4.2973546726144651e-01  6.7278161632981162e+00 0.0000000000000000e+00 4.1954556389049641e-01  6.8200341833059772e+00 0.0000000000000000e+00 4.1043484936773916e-01  6.9123161816281717e+00 0.0000000000000000e+00 4.0157730321773855e-01  7.0038479440040149e+00 0.0000000000000000e+00 3.9271937307685512e-01  7.0963962666562015e+00 0.0000000000000000e+00 3.8286485259852132e-01  7.1881655962646098e+00 0.0000000000000000e+00 3.7399960514857744e-01  7.2810684189937493e+00 0.0000000000000000e+00 3.6246641796287277e-01  7.3729617970787666e+00 0.0000000000000000e+00 3.5287910212261020e-01  7.4646660599483949e+00 0.0000000000000000e+00 3.4371101390152631e-01  7.5575144930228761e+00 0.0000000000000000e+00 3.3305803229696446e-01  7.6498939569726963e+00 0.0000000000000000e+00 3.2240554078889694e-01  7.7410429627282449e+00 0.0000000000000000e+00 3.1409794675267272e-01  7.8336597106780559e+00 0.0000000000000000e+00 3.0262073817423435e-01  7.9251884812249065e+00 0.0000000000000000e+00 2.9359644252728856e-01  8.0168461725686573e+00 0.0000000000000000e+00 2.8520631936785978e-01  8.1090096010695856e+00 0.0000000000000000e+00 2.7481346593362260e-01  8.2012720661739387e+00 0.0000000000000000e+00 2.6450687549756524e-01  8.2926834366861950e+00 0.0000000000000000e+00 2.5751505971835170e-01  8.3856641749825584e+00 0.0000000000000000e+00 2.4765839685739688e-01  8.4769575746792665e+00 0.0000000000000000e+00 2.4244281075981453e-01  8.5701431601711313e+00 0.0000000000000000e+00 2.3534454535780963e-01  8.6633546296868360e+00 0.0000000000000000e+00 2.3517401425295634e-01  8.7588441842559313e+00 0.0000000000000000e+00 2.3703822390368187e-01  8.8589599781843393e+00 0.0000000000000000e+00 2.4327488582133983e-01  8.9647120040538546e+00 0.0000000000000000e+00 2.5110884730654659e-01  9.0769771658883407e+00 0.0000000000000000e+00 2.5123046205266419e-01  9.1946603638461344e+00 0.0000000000000000e+00 2.4212505396172548e-01  9.2975089270882751e+00 2.4937166556176971e-01 2.0431148748388478e-01  9.2731679456220810e+00 4.7584901971520838e-01 1.1909694364443074e-01  9.2395545006024307e+00 6.7045972663113962e-01 -3.8667739579626974e-03  9.2002593477826089e+00 8.2396861441629066e-01 -1.5599344383962638e-01  9.1582861795442732e+00 9.4318215371710334e-01 -3.2523555552910016e-01  9.1133401200094895e+00 1.0260089815038480e+00 -5.0471049894175779e-01  8.9820809321029067e+00 1.0651182029995370e+00 -6.7038872365355917e-01  8.8917214240785274e+00 1.0574583165929696e+00 -6.4968176185830762e-01  8.8021492380451942e+00 1.0511464648715170e+00 -6.2978561027003377e-01  8.7125001513494791e+00 1.0440011594094063e+00 -6.0914343942171911e-01  8.6240107567527726e+00 1.0381180735235940e+00 -5.9147525054809791e-01  8.5362277396589796e+00 1.0344166116824183e+00 -5.7495711060274546e-01  8.4487061606211675e+00 1.0313727128657539e+00 -5.5864606201285938e-01  8.3611025272490380e+00 1.0297510132205596e+00 -5.4303349646708876e-01  8.2729489183443548e+00 1.0281040883181605e+00 -5.2701839146954366e-01  8.1850825736815054e+00 1.0269826014132253e+00 -5.1224515325757725e-01  8.0966006667104331e+00 1.0262598455549694e+00 -4.9730439937829518e-01  8.0079018569749234e+00 1.0267123059013750e+00 -4.8408306001693624e-01  7.9187700477591969e+00 1.0262348996917010e+00 -4.7077324838459234e-01  7.8293823059992143e+00 1.0258329577676581e+00 -4.5790551769674764e-01  7.7400605982884461e+00 1.0261689822386744e+00 -4.4626097386974267e-01  7.6500950730074466e+00 1.0261998438131206e+00 -4.3391606279503903e-01  7.5604061880118643e+00 1.0267313338404964e+00 -4.2175243315501532e-01  7.4703579362761001e+00 1.0274662673776518e+00 -4.1030479928793878e-01  7.3803058777834840e+00 1.0277843198726191e+00 -3.9923492137300437e-01  7.2899659431057460e+00 1.0285259036077932e+00 -3.8822065217240076e-01  7.1995370320223291e+00 1.0289508691400204e+00 -3.7736477533542601e-01  7.1089348744925056e+00 1.0292188350820595e+00 -3.6661427825401016e-01  7.0181832802017174e+00 1.0297153610000187e+00 -3.5646538453211346e-01  6.9274448569157787e+00 1.0292948068690220e+00 -3.4649663671544423e-01  6.8366718275199485e+00 1.0297100747250076e+00 -3.3708511030705313e-01  6.7458306933101531e+00 1.0299620364441544e+00 -3.2769758147586736e-01  6.6548393788695570e+00 1.0301701442940143e+00 -3.1850140736795074e-01  6.5638316226414020e+00 1.0301156071513058e+00 -3.0941877441082016e-01  6.4728015952211173e+00 1.0305252092337076e+00 -3.0069748107658933e-01  6.3817373618012203e+00 1.0303379148040572e+00 -2.9175989864054291e-01  6.2906217154542734e+00 1.0304909976889187e+00 -2.8316949582788020e-01  6.1995218016932387e+00 1.0308114224465712e+00 -2.7484624254079060e-01  6.1084135519414309e+00 1.0304517803747857e+00 -2.6651233553991932e-01  6.0172392742679373e+00 1.0302359435191508e+00 -2.5838440632706455e-01  5.9261474418869771e+00 1.0301624658821715e+00 -2.5044833841743902e-01  5.8350320168162453e+00 1.0299891116681150e+00 -2.4252059184135966e-01  5.7439738692166813e+00 1.0298401167538127e+00 -2.3466315345320091e-01  5.6528418797181343e+00 1.0302723625297079e+00 -2.2698153759633560e-01  5.5616984806698184e+00 1.0306295634972209e+00 -2.1956807333681413e-01  5.4705979184160585e+00 1.0301309425144158e+00 -2.1209279185996296e-01  5.3794484420014221e+00 1.0300161800452954e+00 -2.0482917794422004e-01  5.2883161735712161e+00 1.0302691627311695e+00 -1.9781076236282130e-01  5.1972726416751138e+00 1.0298109983232804e+00 -1.9057190873134344e-01  5.1061392129220415e+00 1.0300054228623423e+00 -1.8364595548385598e-01  5.0150108938298041e+00 1.0302129985501352e+00 -1.7693397775888281e-01  4.9239026404387642e+00 1.0300959135286978e+00 -1.7011609990652038e-01  4.8329186187696154e+00 1.0301164589095233e+00 -1.6356034385073734e-01  4.7418122036144004e+00 1.0303569635067031e+00 -1.5720241109690497e-01  4.6506891840703384e+00 1.0300826898798847e+00 -1.5058712287140377e-01  4.5594476461780449e+00 1.0302459111407185e+00 -1.4408315889167186e-01  4.4683132010852384e+00 1.0304081652219519e+00 -1.3822941230636301e-01  4.3770508209712800e+00 1.0306178312099044e+00 -1.3270491307729376e-01  4.2857681848146401e+00 1.0300782460982123e+00 -1.2703880671061765e-01  4.1948496762062977e+00 1.0303875420874329e+00 -1.2126878332153912e-01  4.1037709427148696e+00 1.0303827413068531e+00 -1.1609249102088588e-01  4.0125653718569678e+00 1.0304043377016607e+00 -1.1068742526107810e-01  3.9213844494288996e+00 1.0301501639615671e+00 -1.0522662378701865e-01  3.8302120250099643e+00 1.0304513517438305e+00 -1.0021811595649860e-01  3.7391465163715498e+00 1.0303589057069689e+00 -9.5444849474564011e-02  3.6481384875967264e+00 1.0303728182565650e+00 -9.0832035119202223e-02  3.5569326986860514e+00 1.0307551696359083e+00 -8.6414686247278424e-02  3.4657840658155350e+00 1.0303622420939227e+00 -8.1925901361918407e-02  3.3745069062926274e+00 1.0302195898726412e+00 -7.7551084208513407e-02  3.2833194452119678e+00 1.0303813828471380e+00 -7.3534414523100333e-02  3.1921136789197013e+00 1.0301756822052919e+00 -6.9365233797497775e-02  3.1008922594931492e+00 1.0294890507188810e+00 -6.5107305714769220e-02  3.0097603775608333e+00 1.0296263915497272e+00 -6.1723967965833494e-02  2.9185853574549991e+00 1.0293699645548358e+00 -5.8058468165383521e-02  2.8274591714366943e+00 1.0295650123174191e+00 -5.4433178136239706e-02  2.7363522183280478e+00 1.0295979621343405e+00 -5.0763006990893880e-02  2.6451315375670021e+00 1.0296228001767505e+00 -4.7112185486723711e-02  2.5538636581104761e+00 1.0296268588646922e+00 -4.3686217962652832e-02  2.4626601235279879e+00 1.0298182157329072e+00 -4.0620008941796633e-02  2.3714862608365164e+00 1.0298432686341910e+00 -3.7497511987632196e-02  2.2802828030291562e+00 1.0298946325124125e+00 -3.4419618687410808e-02  2.1891509392884068e+00 1.0296569933300064e+00 -3.1407554475599994e-02  2.0980450660457035e+00 1.0296363800534611e+00 -2.8790965264036249e-02  2.0069426825483250e+00 1.0299120891606597e+00 -2.6278898207549230e-02  1.9156855783215543e+00 1.0299091623549994e+00 -2.3797135804648557e-02  1.8244050361457480e+00 1.0296853901578282e+00 -2.1082900963276262e-02  1.7332040441946566e+00 1.0300305992344274e+00 -1.8879181222204756e-02  1.6419085950652967e+00 1.0302256758809900e+00 -1.6645593495201259e-02  1.5506729684261846e+00 1.0296870474255437e+00 -1.4274787230387689e-02  1.4594449108415908e+00 1.0297707051173728e+00 -1.2551577455317039e-02  1.3683211554886223e+00 1.0296709590425570e+00 -1.0964094286596414e-02  1.2771650668021388e+00 1.0297496805769895e+00 -9.3086878710141683e-03  1.1859961166491895e+00 1.0295939502533098e+00 -7.4390243072943070e-03  1.0948259408685763e+00 1.0299830643808863e+00 -6.2460673000693575e-03  1.0036327484381575e+00 1.0300730321843743e+00 -5.0012960174504600e-03  9.1240300726186607e-01 1.0300454469554179e+00 -3.8107258073091332e-03  8.2109951609494292e-01 1.0298868966426784e+00 -2.8320570744849536e-03  7.2986794449586634e-01 1.0297736649970706e+00 -2.1127085112669680e-03  6.3857119184754052e-01 1.0297421139464755e+00 -1.4750937895134791e-03  5.4721811355447381e-01 1.0294929843918679e+00 -6.9546041904352553e-04  4.5600806694893231e-01 1.0292486036826192e+00 -2.6303396271756048e-04  3.6476664846509871e-01 1.0293799252217923e+00 -2.7702822720266648e-04  2.7354285698015185e-01 1.0287867976421581e+00 -7.5306412619864017e-05  1.8233284203887487e-01 1.0286470587222891e+00 0.0000000000000000e+00  9.1141857784368424e-02 1.0281581484575344e+00 0.0000000000000000e+00  9.0868317101978668e+00 9.0406159315066703e-01 -6.6744016072471213e-01  9.0996773621669966e+00 7.2820759722808726e-01 -6.5233328974525384e-01  9.1144400511315027e+00 5.5394692256908917e-01 -6.4023243277255104e-01  9.1209833363691093e+00 3.6744728653809172e-01 -6.3517684950147268e-01  9.1306311263648148e+00 1.8256897402934641e-01 -6.2757159439860499e-01  9.0468001825616984e+00 0.0000000000000000e+00 -6.0294553514780236e-01  8.9557294109519852e+00 0.0000000000000000e+00 -5.8707692802402855e-01  8.8633809382865536e+00 0.0000000000000000e+00 -5.6811739886148283e-01  8.7703446012602360e+00 0.0000000000000000e+00 -5.5331581321647627e-01  8.6784221233079890e+00 0.0000000000000000e+00 -5.4206526814987011e-01  8.5855065157288752e+00 0.0000000000000000e+00 -5.2889149859206352e-01  8.4937709953359750e+00 0.0000000000000000e+00 -5.1854458464915210e-01  8.4009833737104174e+00 0.0000000000000000e+00 -5.0866992035380232e-01  8.3078274589778633e+00 0.0000000000000000e+00 -4.9600469621968202e-01  8.2155411430326879e+00 0.0000000000000000e+00 -4.8831164288901241e-01  8.1231031978901935e+00 0.0000000000000000e+00 -4.7920044908852039e-01  8.0310895517852927e+00 0.0000000000000000e+00 -4.6857100094350723e-01  7.9389969562986655e+00 0.0000000000000000e+00 -4.5762248811525907e-01  7.8464333970323619e+00 0.0000000000000000e+00 -4.4671069494399940e-01  7.7546461010800876e+00 0.0000000000000000e+00 -4.3871278880651382e-01  7.6631576422915630e+00 0.0000000000000000e+00 -4.2934427416768944e-01  7.5717239475868938e+00 0.0000000000000000e+00 -4.1898573676207101e-01  7.4794209391886710e+00 0.0000000000000000e+00 -4.0802967345879138e-01  7.3874088679139103e+00 0.0000000000000000e+00 -4.0063794080043202e-01  7.2960153887633945e+00 0.0000000000000000e+00 -3.9029005952499929e-01  7.2042697272125773e+00 0.0000000000000000e+00 -3.7977160685392086e-01  7.1133133343209902e+00 0.0000000000000000e+00 -3.7139299443597545e-01  7.0217047809181485e+00 0.0000000000000000e+00 -3.6060469088678493e-01  6.9300230002816132e+00 0.0000000000000000e+00 -3.5233323816628742e-01  6.8391223300240345e+00 0.0000000000000000e+00 -3.4308726508683718e-01  6.7479128719050401e+00 0.0000000000000000e+00 -3.3313837669880447e-01  6.6562919134229759e+00 0.0000000000000000e+00 -3.2345602823313435e-01  6.5648656345664271e+00 0.0000000000000000e+00 -3.1599655046269715e-01  6.4735083703341214e+00 0.0000000000000000e+00 -3.0665444950738407e-01  6.3821804324459377e+00 0.0000000000000000e+00 -2.9895360777740448e-01  6.2915699319329486e+00 0.0000000000000000e+00 -2.9108088461221276e-01  6.2005758428501423e+00 0.0000000000000000e+00 -2.8216939676399472e-01  6.1091822723225482e+00 0.0000000000000000e+00 -2.7192877549116357e-01  6.0177450446220648e+00 0.0000000000000000e+00 -2.6481800868857963e-01  5.9262403185472294e+00 0.0000000000000000e+00 -2.5515882204803547e-01  5.8354785412773698e+00 0.0000000000000000e+00 -2.4911158245649995e-01  5.7441952556488785e+00 0.0000000000000000e+00 -2.4038021484271066e-01  5.6524078357939693e+00 0.0000000000000000e+00 -2.3194880889304464e-01  5.5611510800185231e+00 0.0000000000000000e+00 -2.2536324195966492e-01  5.4702024993087308e+00 0.0000000000000000e+00 -2.1678856667989321e-01  5.3795331894174652e+00 0.0000000000000000e+00 -2.1099240818406981e-01  5.2888608737815002e+00 0.0000000000000000e+00 -2.0290981432438984e-01  5.1973926164341187e+00 0.0000000000000000e+00 -1.9487454855622033e-01  5.1068486233425476e+00 0.0000000000000000e+00 -1.8988393560869329e-01  5.0160139892995907e+00 0.0000000000000000e+00 -1.8300828985728468e-01  4.9246140231206095e+00 0.0000000000000000e+00 -1.7466764595594289e-01  4.8335524550263349e+00 0.0000000000000000e+00 -1.6951255865183512e-01  4.7421379201946516e+00 0.0000000000000000e+00 -1.6258547518320782e-01  4.6506513908611877e+00 0.0000000000000000e+00 -1.5749645633453979e-01  4.5597428576159107e+00 0.0000000000000000e+00 -1.5129406590710381e-01  4.4686629075423614e+00 0.0000000000000000e+00 -1.4576546816197866e-01  4.3772822925527013e+00 0.0000000000000000e+00 -1.3865222808520192e-01  4.2864923318237906e+00 0.0000000000000000e+00 -1.3