<?xml version="1.0"?>
<VTKFile type="UnstructuredGrid"  version="0.1"  >
<UnstructuredGrid>
<Piece  NumberOfPoints="3069" NumberOfCells="12882">
<Points>
<DataArray  type="Float64"  NumberOfComponents="3"  format="ascii">0 0 0  0 0 4  0 5.65685415 0  50 0 4  50 5.65685415 0  50 0 0  0 0 1  0 0 2  0 0 3  0 1.04967844 3.90746784  0 2.0669806 3.632725  0 3.02052855 3.18424606  0 3.88091111 2.5758636  0 4.62159061 1.82634306  0 5.21972132 0.958802283  0 4.71404505 0  0 3.77123618 0  0 2.82842708 0  0 1.88561809 0  0 0.942809045 0  0.5 0 4  1 0 4  1.5 0 4  2 0 4  2.5 0 4  3 0 4  3.5 0 4  4 0 4  4.5 0 4  5 0 4  5.5 0 4  6 0 4  6.5 0 4  7 0 4  7.5 0 4  8 0 4  8.5 0 4  9 0 4  9.5 0 4  10 0 4  10.5 0 4  11 0 4  11.5 0 4  12 0 4  12.5 0 4  13 0 4  13.5 0 4  14 0 4  14.5 0 4  15 0 4  15.5 0 4  16 0 4  16.5 0 4  17 0 4  17.5 0 4  18 0 4  18.5 0 4  19 0 4  19.5 0 4  20 0 4  20.5 0 4  21 0 4  21.5 0 4  22 0 4  22.5 0 4  23 0 4  23.5 0 4  24 0 4  24.5 0 4  25 0 4  25.5 0 4  26 0 4  26.5 0 4  27 0 4  27.5 0 4  28 0 4  28.5 0 4  29 0 4  29.5 0 4  30 0 4  30.5 0 4  31 0 4  31.5 0 4  32 0 4  32.5 0 4  33 0 4  33.5 0 4  34 0 4  34.5 0 4  35 0 4  35.5 0 4  36 0 4  36.5 0 4  37 0 4  37.5 0 4  38 0 4  38.5 0 4  39 0 4  39.5 0 4  40 0 4  40.5 0 4  41 0 4  41.5 0 4  42 0 4  42.5 0 4  43 0 4  43.5 0 4  44 0 4  44.5 0 4  45 0 4  45.5 0 4  46 0 4  46.5 0 4  47 0 4  47.5 0 4  48 0 4  48.5 0 4  49 0 4  49.5 0 4  50 1.04967844 3.90746784  50 2.0669806 3.632725  50 3.02052855 3.18424606  50 3.88091111 2.5758636  50 4.62159061 1.82634306  50 5.21972132 0.958802283  49.5 5.65685415 0  49 5.65685415 0  48.5 5.65685415 0  48 5.65685415 0  47.5 5.65685415 0  47 5.65685415 0  46.5 5.65685415 0  46 5.65685415 0  45.5 5.65685415 0  45 5.65685415 0  44.5 5.65685415 0  44 5.65685415 0  43.5 5.65685415 0  43 5.65685415 0  42.5 5.65685415 0  42 5.65685415 0  41.5 5.65685415 0  41 5.65685415 0  40.5 5.65685415 0  40 5.65685415 0  39.5 5.65685415 0  39 5.65685415 0  38.5 5.65685415 0  38 5.65685415 0  37.5 5.65685415 0  37 5.65685415 0  36.5 5.65685415 0  36 5.65685415 0  35.5 5.65685415 0  35 5.65685415 0  34.5 5.65685415 0  34 5.65685415 0  33.5 5.65685415 0  33 5.65685415 0  32.5 5.65685415 0  32 5.65685415 0  31.5 5.65685415 0  31 5.65685415 0  30.5 5.65685415 0  30 5.65685415 0  29.5 5.65685415 0  29 5.65685415 0  28.5 5.65685415 0  28 5.65685415 0  27.5 5.65685415 0  27 5.65685415 0  26.5 5.65685415 0  26 5.65685415 0  25.5 5.65685415 0  25 5.65685415 0  24.5 5.65685415 0  24 5.65685415 0  23.5 5.65685415 0  23 5.65685415 0  22.5 5.65685415 0  22 5.65685415 0  21.5 5.65685415 0  21 5.65685415 0  20.5 5.65685415 0  20 5.65685415 0  19.5 5.65685415 0  19 5.65685415 0  18.5 5.65685415 0  18 5.65685415 0  17.5 5.65685415 0  17 5.65685415 0  16.5 5.65685415 0  16 5.65685415 0  15.5 5.65685415 0  15 5.65685415 0  14.5 5.65685415 0  14 5.65685415 0  13.5 5.65685415 0  13 5.65685415 0  12.5 5.65685415 0  12 5.65685415 0  11.5 5.65685415 0  11 5.65685415 0  10.5 5.65685415 0  10 5.65685415 0  9.5 5.65685415 0  9 5.65685415 0  8.5 5.65685415 0  8 5.65685415 0  7.5 5.65685415 0  7 5.65685415 0  6.5 5.65685415 0  6 5.65685415 0  5.5 5.65685415 0  5 5.65685415 0  4.5 5.65685415 0  4 5.65685415 0  3.5 5.65685415 0  3 5.65685415 0  2.5 5.65685415 0  2 5.65685415 0  1.5 5.65685415 0  1 5.65685415 0  0.5 5.65685415 0  50 4.71404505 0  50 3.77123618 0  50 2.82842708 0  50 1.88561809 0  50 0.942809045 0  49.5 0 0  49 0 0  48.5 0 0  48 0 0  47.5 0 0  47 0 0  46.5 0 0  46 0 0  45.5 0 0  45 0 0  44.5 0 0  44 0 0  43.5 0 0  43 0 0  42.5 0 0  42 0 0  41.5 0 0  41 0 0  40.5 0 0  40 0 0  39.5 0 0  39 0 0  38.5 0 0  38 0 0  37.5 0 0  37 0 0  36.5 0 0  36 0 0  35.5 0 0  35 0 0  34.5 0 0  34 0 0  33.5 0 0  33 0 0  32.5 0 0  32 0 0  31.5 0 0  31 0 0  30.5 0 0  30 0 0  29.5 0 0  29 0 0  28.5 0 0  28 0 0  27.5 0 0  27 0 0  26.5 0 0  26 0 0  25.5 0 0  25 0 0  24.5 0 0  24 0 0  23.5 0 0  23 0 0  22.5 0 0  22 0 0  21.5 0 0  21 0 0  20.5 0 0  20 0 0  19.5 0 0  19 0 0  18.5 0 0  18 0 0  17.5 0 0  17 0 0  16.5 0 0  16 0 0  15.5 0 0  15 0 0  14.5 0 0  14 0 0  13.5 0 0  13 0 0  12.5 0 0  12 0 0  11.5 0 0  11 0 0  10.5 0 0  10 0 0  9.5 0 0  9 0 0  8.5 0 0  8 0 0  7.5 0 0  7 0 0  6.5 0 0  6 0 0  5.5 0 0  5 0 0  4.5 0 0  4 0 0  3.5 0 0  3 0 0  2.5 0 0  2 0 0  1.5 0 0  1 0 0  0.5 0 0  50 0 1  50 0 2  50 0 3  0 2.33524275 0.893602192  0 2.87561393 1.93323028  0 4.2367816 0.876864135  0 2.00050235 2.65534091  0 0.981494486 2.34323239  0 3.78543234 1.61830366  0 3.30545568 0.887000024  0 0.812916458 1.58408713  0 1.71948838 1.71268857  0 1.28267908 0.8650629520000001  0 1.21973121 3.10775328  0.5 5.21972132 0.958802223  0.5 4.62159061 1.82634306  0.5 3.88091111 2.5758636  0.5 3.02052855 3.18424606  0.5 2.0669806 3.632725  0.5 1.04967844 3.90746784  1 5.21972132 0.958802223  1 4.62159061 1.82634306  1 3.88091111 2.5758636  1 3.02052855 3.18424606  1 2.0669806 3.632725  1 1.04967844 3.90746784  1.5 5.21972132 0.958802223  1.5 4.62159061 1.82634306  1.5 3.88091111 2.5758636  1.5 3.02052855 3.18424606  1.5 2.0669806 3.632725  1.5 1.04967844 3.90746784  2 5.21972132 0.958802223  2 4.62159061 1.82634306  2 3.88091111 2.5758636  2 3.02052855 3.18424606  2 2.0669806 3.632725  2 1.04967844 3.90746784  2.5 5.21972132 0.958802223  2.5 4.62159061 1.82634306  2.5 3.88091111 2.5758636  2.5 3.02052855 3.18424606  2.5 2.0669806 3.632725  2.5 1.04967844 3.90746784  3 5.21972132 0.958802223  3 4.62159061 1.82634306  3 3.88091111 2.5758636  3 3.02052855 3.18424606  3 2.0669806 3.632725  3 1.04967844 3.90746784  3.5 5.21972132 0.958802223  3.5 4.62159061 1.82634306  3.5 3.88091111 2.5758636  3.5 3.02052855 3.18424606  3.5 2.0669806 3.632725  3.5 1.04967844 3.90746784  4 5.21972132 0.958802223  4 4.62159061 1.82634306  4 3.88091111 2.5758636  4 3.02052855 3.18424606  4 2.0669806 3.632725  4 1.04967844 3.90746784  4.5 5.21972132 0.958802223  4.5 4.62159061 1.82634306  4.5 3.88091111 2.5758636  4.5 3.02052855 3.18424606  4.5 2.0669806 3.632725  4.5 1.04967844 3.90746784  5 5.21972132 0.958802223  5 4.62159061 1.82634306  5 3.88091111 2.5758636  5 3.02052855 3.18424606  5 2.0669806 3.632725  5 1.04967844 3.90746784  5.5 5.21972132 0.958802223  5.5 4.62159061 1.82634306  5.5 3.88091111 2.5758636  5.5 3.02052855 3.18424606  5.5 2.0669806 3.632725  5.5 1.04967844 3.90746784  6 5.21972132 0.958802223  6 4.62159061 1.82634306  6 3.88091111 2.5758636  6 3.02052855 3.18424606  6 2.0669806 3.632725  6 1.04967844 3.90746784  6.5 5.21972132 0.958802223  6.5 4.62159061 1.82634306  6.5 3.88091111 2.5758636  6.5 3.02052855 3.18424606  6.5 2.0669806 3.632725  6.5 1.04967844 3.90746784  7 5.21972132 0.958802223  7 4.62159061 1.82634306  7 3.88091111 2.5758636  7 3.02052855 3.18424606  7 2.0669806 3.632725  7 1.04967844 3.90746784  7.5 5.21972132 0.958802223  7.5 4.62159061 1.82634306  7.5 3.88091111 2.5758636  7.5 3.02052855 3.18424606  7.5 2.0669806 3.632725  7.5 1.04967844 3.90746784  8 5.21972132 0.958802223  8 4.62159061 1.82634306  8 3.88091111 2.5758636  8 3.02052855 3.18424606  8 2.0669806 3.632725  8 1.04967844 3.90746784  8.5 5.21972132 0.958802223  8.5 4.62159061 1.82634306  8.5 3.88091111 2.5758636  8.5 3.02052855 3.18424606  8.5 2.0669806 3.632725  8.5 1.04967844 3.90746784  9 5.21972132 0.958802223  9 4.62159061 1.82634306  9 3.88091111 2.5758636  9 3.02052855 3.18424606  9 2.0669806 3.632725  9 1.04967844 3.90746784  9.5 5.21972132 0.958802223  9.5 4.62159061 1.82634306  9.5 3.88091111 2.5758636  9.5 3.02052855 3.18424606  9.5 2.0669806 3.632725  9.5 1.04967844 3.90746784  10 5.21972132 0.958802223  10 4.62159061 1.82634306  10 3.88091111 2.5758636  10 3.02052855 3.18424606  10 2.0669806 3.632725  10 1.04967844 3.90746784  10.5 5.21972132 0.958802223  10.5 4.62159061 1.82634306  10.5 3.88091111 2.5758636  10.5 3.02052855 3.18424606  10.5 2.0669806 3.632725  10.5 1.04967844 3.90746784  11 5.21972132 0.958802223  11 4.62159061 1.82634306  11 3.88091111 2.5758636  11 3.02052855 3.18424606  11 2.0669806 3.632725  11 1.04967844 3.90746784  11.5 5.21972132 0.958802223  11.5 4.62159061 1.82634306  11.5 3.88091111 2.5758636  11.5 3.02052855 3.18424606  11.5 2.0669806 3.632725  11.5 1.04967844 3.90746784  12 5.21972132 0.958802223  12 4.62159061 1.82634306  12 3.88091111 2.5758636  12 3.02052855 3.18424606  12 2.0669806 3.632725  12 1.04967844 3.90746784  12.5 5.21972132 0.958802223  12.5 4.62159061 1.82634306  12.5 3.88091111 2.5758636  12.5 3.02052855 3.18424606  12.5 2.0669806 3.632725  12.5 1.04967844 3.90746784  13 5.21972132 0.958802223  13 4.62159061 1.82634306  13 3.88091111 2.5758636  13 3.02052855 3.18424606  13 2.0669806 3.632725  13 1.04967844 3.90746784  13.5 5.21972132 0.958802223  13.5 4.62159061 1.82634306  13.5 3.88091111 2.5758636  13.5 3.02052855 3.18424606  13.5 2.0669806 3.632725  13.5 1.04967844 3.90746784  14 5.21972132 0.958802223  14 4.62159061 1.82634306  14 3.88091111 2.5758636  14 3.02052855 3.18424606  14 2.0669806 3.632725  14 1.04967844 3.90746784  14.5 5.21972132 0.958802223  14.5 4.62159061 1.82634306  14.5 3.88091111 2.5758636  14.5 3.02052855 3.18424606  14.5 2.0669806 3.632725  14.5 1.04967844 3.90746784  15 5.21972132 0.958802223  15 4.62159061 1.82634306  15 3.88091111 2.5758636  15 3.02052855 3.18424606  15 2.0669806 3.632725  15 1.04967844 3.90746784  15.5 5.21972132 0.958802223  15.5 4.62159061 1.82634306  15.5 3.88091111 2.5758636  15.5 3.02052855 3.18424606  15.5 2.0669806 3.632725  15.5 1.04967844 3.90746784  16 5.21972132 0.958802223  16 4.62159061 1.82634306  16 3.88091111 2.5758636  16 3.02052855 3.18424606  16 2.0669806 3.632725  16 1.04967844 3.90746784  16.5 5.21972132 0.958802223  16.5 4.62159061 1.82634306  16.5 3.88091111 2.5758636  16.5 3.02052855 3.18424606  16.5 2.0669806 3.632725  16.5 1.04967844 3.90746784  17 5.21972132 0.958802223  17 4.62159061 1.82634306  17 3.88091111 2.5758636  17 3.02052855 3.18424606  17 2.0669806 3.632725  17 1.04967844 3.90746784  17.5 5.21972132 0.958802223  17.5 4.62159061 1.82634306  17.5 3.88091111 2.5758636  17.5 3.02052855 3.18424606  17.
[...]
<PointData  Vectors="f_261141-0"> 
<DataArray  type="Float64"  Name="f_261141-0"  NumberOfComponents="3" format="ascii">0.0000000000000000e+00 0.0000000000000000e+00 0.0000000000000000e+00  0.0000000000000000e+00 0.0000000000000000e+00 6.1682278828661385e-01  0.0000000000000000e+00 9.9032748973708373e-01 0.0000000000000000e+00  7.9079545224456593e+00 0.0000000000000000e+00 4.1975468809953265e+00  8.7118394364894858e+00 8.7246417390358366e-01 3.8644827489186881e+00  8.5549902925249963e+00 0.0000000000000000e+00 3.7638234269373640e+00  0.0000000000000000e+00 0.0000000000000000e+00 1.6389107729218069e-01  0.0000000000000000e+00 0.0000000000000000e+00 3.2596862842476698e-01  0.0000000000000000e+00 0.0000000000000000e+00 4.6034508655078255e-01  0.0000000000000000e+00 1.4852956200405829e-01 6.0868681756657139e-01  0.0000000000000000e+00 3.0790296246751486e-01 5.9354412554953195e-01  0.0000000000000000e+00 4.7503836355380669e-01 5.4988938348921790e-01  0.0000000000000000e+00 6.2821746969955761e-01 4.5744030562642912e-01  0.0000000000000000e+00 7.9201916408925244e-01 3.2515833566063351e-01  0.0000000000000000e+00 9.3045886495654606e-01 1.8116037756871883e-01  0.0000000000000000e+00 8.2880670348567154e-01 0.0000000000000000e+00  0.0000000000000000e+00 6.5009394903983253e-01 0.0000000000000000e+00  0.0000000000000000e+00 4.5854157601786727e-01 0.0000000000000000e+00  0.0000000000000000e+00 2.8970663897526489e-01 0.0000000000000000e+00  0.0000000000000000e+00 1.4252299758855014e-01 0.0000000000000000e+00  8.2699790707862320e-02 0.0000000000000000e+00 6.2164252618538574e-01  1.5969485809332232e-01 0.0000000000000000e+00 6.1892111747841583e-01  2.4011377793554253e-01 0.0000000000000000e+00 6.2421235501304606e-01  3.2520811859674448e-01 0.0000000000000000e+00 6.2559955079620877e-01  4.0490568336387833e-01 0.0000000000000000e+00 6.3554992941648913e-01  4.9097455136627066e-01 0.0000000000000000e+00 6.3298921954734455e-01  5.7055571226072510e-01 0.0000000000000000e+00 6.4493638513138463e-01  6.5522829253038484e-01 0.0000000000000000e+00 6.4044002185110493e-01  7.3599641270650595e-01 0.0000000000000000e+00 6.5750655451612861e-01  8.1557262445605161e-01 0.0000000000000000e+00 6.6326868665954997e-01  8.9369066220494009e-01 0.0000000000000000e+00 6.8063948229825666e-01  9.7771604749833607e-01 0.0000000000000000e+00 6.7880266818868440e-01  1.0590371743645186e+00 0.0000000000000000e+00 6.9239205629364919e-01  1.1506329552005092e+00 0.0000000000000000e+00 6.9428369568469872e-01  1.2297757750477447e+00 0.0000000000000000e+00 7.1684498505543082e-01  1.3139834258058323e+00 0.0000000000000000e+00 7.1941536645316873e-01  1.3957228208932941e+00 0.0000000000000000e+00 7.2453215980267949e-01  1.4753540317169112e+00 0.0000000000000000e+00 7.4117934930340901e-01  1.5592138068686754e+00 0.0000000000000000e+00 7.5435392448958283e-01  1.6408452609749011e+00 0.0000000000000000e+00 7.6773649349316442e-01  1.7188235174815774e+00 0.0000000000000000e+00 7.9082421906928224e-01  1.8064972058232367e+00 0.0000000000000000e+00 8.0437288767330939e-01  1.8907411768043034e+00 0.0000000000000000e+00 8.2078092742341957e-01  1.9741094835126993e+00 0.0000000000000000e+00 8.2751599125772768e-01  2.0515754811607625e+00 0.0000000000000000e+00 8.5566886269362985e-01  2.1332267821215241e+00 0.0000000000000000e+00 8.6999516374419561e-01  2.2152982579125244e+00 0.0000000000000000e+00 8.8868875224930644e-01  2.2964043952589472e+00 0.0000000000000000e+00 9.1429104651657256e-01  2.3763147072580830e+00 0.0000000000000000e+00 9.2808482610476017e-01  2.4608732095333417e+00 0.0000000000000000e+00 9.4943153148805615e-01  2.5381294568683739e+00 0.0000000000000000e+00 9.7944855060090663e-01  2.6252221886098361e+00 0.0000000000000000e+00 9.9928937008480478e-01  2.7028210966622828e+00 0.0000000000000000e+00 1.0302327419990460e+00  2.7882266005121887e+00 0.0000000000000000e+00 1.0432699265632017e+00  2.8716520942943267e+00 0.0000000000000000e+00 1.0666927493681240e+00  2.9561076838035882e+00 0.0000000000000000e+00 1.0903633340200507e+00  3.0346944059742937e+00 0.0000000000000000e+00 1.1213692495654084e+00  3.1121383393652331e+00 0.0000000000000000e+00 1.1531001466687265e+00  3.1981352916745291e+00 0.0000000000000000e+00 1.1722950971097841e+00  3.2765601509780620e+00 0.0000000000000000e+00 1.2069747764241703e+00  3.3571343128622169e+00 0.0000000000000000e+00 1.2455921902438554e+00  3.4407910224334328e+00 0.0000000000000000e+00 1.2668533498199335e+00  3.5148659365901742e+00 0.0000000000000000e+00 1.3026106460961935e+00  3.6024682193289319e+00 0.0000000000000000e+00 1.3213840380372428e+00  3.6825334043925526e+00 0.0000000000000000e+00 1.3560439424108508e+00  3.7658471845858625e+00 0.0000000000000000e+00 1.3926041831228191e+00  3.8446274664773226e+00 0.0000000000000000e+00 1.4307610799408421e+00  3.9239523901102600e+00 0.0000000000000000e+00 1.4641599044101081e+00  4.0052856147099156e+00 0.0000000000000000e+00 1.5031970357107800e+00  4.0878626912438287e+00 0.0000000000000000e+00 1.5360133389953399e+00  4.1739587340744864e+00 0.0000000000000000e+00 1.5729462062645134e+00  4.2485410617873161e+00 0.0000000000000000e+00 1.6208009573396585e+00  4.3322717923008858e+00 0.0000000000000000e+00 1.6513342995877236e+00  4.4063422565988057e+00 0.0000000000000000e+00 1.7076706386292286e+00  4.4882520784269015e+00 0.0000000000000000e+00 1.7382895734794839e+00  4.5716173466109273e+00 0.0000000000000000e+00 1.7716687865125431e+00  4.6569381958312706e+00 0.0000000000000000e+00 1.8115102337525284e+00  4.7370097431049762e+00 0.0000000000000000e+00 1.8617030933956149e+00  4.8136648670799689e+00 0.0000000000000000e+00 1.9168506490992117e+00  4.8917999212083085e+00 0.0000000000000000e+00 1.9588837977331082e+00  4.9764760816315148e+00 0.0000000000000000e+00 1.9916725145081262e+00  5.0542640337120730e+00 0.0000000000000000e+00 2.0487244748558036e+00  5.1363596684935748e+00 0.0000000000000000e+00 2.0842729939317608e+00  5.2223301128363451e+00 0.0000000000000000e+00 2.1280724710065346e+00  5.2979315675986864e+00 0.0000000000000000e+00 2.1864244060922804e+00  5.3782141569771884e+00 0.0000000000000000e+00 2.2299981995701783e+00  5.4634821479188593e+00 0.0000000000000000e+00 2.2810434671286886e+00  5.5388710220333124e+00 0.0000000000000000e+00 2.3353985867953946e+00  5.6159815000292816e+00 0.0000000000000000e+00 2.3833234857607093e+00  5.6960447368563560e+00 0.0000000000000000e+00 2.4344033216749756e+00  5.7723180746552254e+00 0.0000000000000000e+00 2.4900324795626632e+00  5.8503601484271970e+00 0.0000000000000000e+00 2.5466143069642584e+00  5.9294573675076530e+00 0.0000000000000000e+00 2.5985567877825106e+00  6.0096403417057704e+00 0.0000000000000000e+00 2.6562728544375265e+00  6.0963061535371441e+00 0.0000000000000000e+00 2.7053870026264990e+00  6.1704463404167820e+00 0.0000000000000000e+00 2.7737627194020402e+00  6.2506767190070809e+00 0.0000000000000000e+00 2.8300239321659983e+00  6.3263562621020402e+00 0.0000000000000000e+00 2.8907089937256858e+00  6.4092742762556592e+00 0.0000000000000000e+00 2.9449062610892369e+00  6.4867954525397469e+00 0.0000000000000000e+00 3.0089192727516747e+00  6.5662429103286515e+00 0.0000000000000000e+00 3.0724203973863435e+00  6.6476073003391027e+00 0.0000000000000000e+00 3.1208282410265027e+00  6.7310930179487505e+00 0.0000000000000000e+00 3.1851383485787768e+00  6.8052062002122025e+00 0.0000000000000000e+00 3.2598927990289690e+00  6.8874010096137788e+00 0.0000000000000000e+00 3.3069857434404613e+00  6.9624108534929459e+00 0.0000000000000000e+00 3.3781334469567250e+00  7.0407675656531694e+00 0.0000000000000000e+00 3.4435315575341039e+00  7.1181200762104879e+00 0.0000000000000000e+00 3.5001929758835884e+00  7.2023033266662653e+00 0.0000000000000000e+00 3.5595776604640199e+00  7.2762875811802505e+00 0.0000000000000000e+00 3.6289365016754891e+00  7.3568704820155499e+00 0.0000000000000000e+00 3.6792035570711716e+00  7.4328680383214163e+00 0.0000000000000000e+00 3.7401592521978184e+00  7.5109236112402114e+00 0.0000000000000000e+00 3.7931401466359542e+00  7.5851065147726242e+00 0.0000000000000000e+00 3.8513109629860454e+00  7.6544679812726617e+00 0.0000000000000000e+00 3.9021090868426209e+00  7.7159175662870068e+00 0.0000000000000000e+00 3.9509145404705723e+00  7.7730964925696009e+00 0.0000000000000000e+00 4.0048901697652175e+00  7.8244140618384721e+00 0.0000000000000000e+00 4.0579454463122664e+00  7.8669677750872955e+00 0.0000000000000000e+00 4.1202825588903185e+00  7.9339451781214345e+00 8.7251056638364494e-02 4.1898565661296470e+00  8.0019331935243176e+00 1.9204617840281052e-01 4.1908082879062887e+00  8.0909723757526955e+00 3.0585219355197862e-01 4.1903775514203314e+00  8.2086622691102651e+00 4.4220924414043838e-01 4.1797637641962844e+00  8.3744724365776033e+00 6.0072715433763146e-01 4.1281026315497638e+00  8.5592447335670681e+00 7.5809032050765346e-01 4.0081625095682538e+00  8.6356666987693309e+00 8.8796944425236934e-01 3.7871273398665335e+00  8.5556383938329077e+00 9.1018833974807722e-01 3.7024381710785139e+00  8.4758836195893732e+00 9.2812598861812112e-01 3.6184785075371422e+00  8.3895060283384879e+00 9.3878189370831056e-01 3.5393444943115524e+00  8.3064645492406370e+00 9.5324237896590869e-01 3.4564734274412054e+00  8.2196489675040780e+00 9.6996891139872388e-01 3.3682444530567630e+00  8.1304317697923132e+00 9.7233439159907287e-01 3.2839600033717011e+00  8.0369208159082195e+00 9.7648667487532759e-01 3.2064131789886914e+00  7.9462865286544364e+00 9.8265354940542304e-01 3.1274795381600198e+00  7.8526569122926766e+00 9.8480294221081544e-01 3.0533116959403359e+00  7.7618843079421485e+00 9.8653186563000217e-01 2.9766482722674397e+00  7.6722640251697474e+00 9.9263241359516752e-01 2.9016167730630000e+00  7.5830727607559734e+00 9.9361980681749229e-01 2.8355705162781977e+00  7.4944431909086475e+00 9.9257591439460047e-01 2.7669527086010270e+00  7.4095808399947769e+00 9.9014843815045306e-01 2.6913022452044939e+00  7.3201386815832885e+00 9.8397276231644581e-01 2.6238916627431017e+00  7.2361854509553956e+00 9.8487281381560288e-01 2.5694381415575616e+00  7.1500062598897323e+00 9.9244934758800962e-01 2.5129355175731982e+00  7.0668192387223865e+00 9.9763024056024829e-01 2.4502558859023171e+00  6.9817878044601986e+00 9.9985599714706208e-01 2.3897510098424082e+00  6.8953071714961718e+00 1.0011093214664901e+00 2.3303056870996937e+00  6.8066757228770296e+00 9.9733708409213040e-01 2.2731536522594760e+00  6.7194666482094281e+00 1.0000765883267295e+00 2.2096763787126550e+00  6.6324027967897594e+00 9.9032584828342263e-01 2.1498193139870465e+00  6.5482998460199893e+00 9.9082254592109142e-01 2.0834685580433736e+00  6.4623907789925221e+00 9.8362789319528898e-01 2.0248035437961542e+00  6.3752024377263563e+00 9.8351937753576890e-01 1.9665168051396955e+00  6.2892959730661921e+00 9.8423961059014675e-01 1.9061656475370496e+00  6.2046336004737910e+00 9.8354239636796525e-01 1.8506815667247627e+00  6.1202539136475531e+00 9.8330712286541100e-01 1.7960831448620775e+00  6.0330172603541463e+00 9.8158712922081282e-01 1.7428724089477705e+00  5.9472522178337544e+00 9.7985304608755353e-01 1.6891061083728043e+00  5.8608294019272416e+00 9.7541496003639883e-01 1.6369127325208972e+00  5.7746595911860146e+00 9.7510398981577850e-01 1.5826659213927452e+00  5.6892055397800814e+00 9.7558890305658885e-01 1.5330107951555796e+00  5.6040265027069447e+00 9.7601517275338801e-01 1.4818463177371868e+00  5.5180073463935031e+00 9.8048487134654649e-01 1.4303541359529393e+00  5.4297225269148424e+00 9.8044359242015544e-01 1.3836567418039243e+00  5.3421461863452242e+00 9.8050502610501811e-01 1.3357571931718863e+00  5.2567693928672057e+00 9.7639076531178315e-01 1.2867779306962337e+00  5.1692363779950021e+00 9.7429526954723289e-01 1.2385373066179235e+00  5.0821763246685894e+00 9.7382263427901994e-01 1.1945519790702364e+00  4.9950283804850759e+00 9.6681034689692380e-01 1.1555344779658683e+00  4.9094225088800023e+00 9.6743216104336982e-01 1.1105884070460785e+00  4.8256141793189409e+00 9.7285360389514286e-01 1.0663988594155618e+00  4.7402750089566350e+00 9.7510428794010418e-01 1.0292144216234915e+00  4.6548920745068436e+00 9.8130198422940795e-01 9.9074695360341947e-01  4.5676200186597313e+00 9.7982315003630294e-01 9.5359446821217342e-01  4.4787229735763372e+00 9.7433274785002266e-01 9.1768021534580912e-01  4.3889710610255230e+00 9.7724441013984042e-01 8.7976321960723058e-01  4.3002985313984796e+00 9.7422149649255185e-01 8.4371836637924569e-01  4.2127495201626513e+00 9.8288847604300811e-01 7.9864461316086832e-01  4.1259696003777115e+00 9.7694423368244121e-01 7.6758836768249128e-01  4.0371373178836638e+00 9.7989296917075031e-01 7.2210773054807975e-01  3.9520989795288020e+00 9.7667506700852835e-01 6.8344849702580435e-01  3.8617035828690578e+00 9.7471386710380359e-01 6.5540010200352983e-01  3.7724341876023115e+00 9.7569631252625744e-01 6.2963288561798625e-01  3.6862542219438170e+00 9.8014551108525783e-01 5.9723725539425665e-01  3.5984650738325983e+00 9.8146323852175499e-01 5.6818521417437895e-01  3.5129088380483782e+00 9.8088532333748357e-01 5.3793911594170463e-01  3.4237377081852740e+00 9.8379832610524809e-01 5.0775041469508742e-01  3.3358941663592692e+00 9.7847124147131681e-01 4.8065378672128184e-01  3.2457837765246715e+00 9.8100735161808805e-01 4.5606080777961433e-01  3.1610030053411888e+00 9.8212441227954772e-01 4.2644124762137148e-01  3.0729449340676380e+00 9.8084329767210432e-01 4.0630732069552683e-01  2.9837057470677779e+00 9.7304134358782568e-01 3.9005964204486637e-01  2.8971136487383959e+00 9.8003259121000919e-01 3.5921784980446264e-01  2.8109142548233446e+00 9.8044092319965626e-01 3.3217844273959513e-01  2.7250120995357787e+00 9.7678962725740948e-01 3.1090904974798711e-01  2.6381787537020123e+00 9.8002001394952676e-01 2.8738947320438402e-01  2.5494553480317843e+00 9.7869538493148234e-01 2.6849985203323051e-01  2.4607050169310143e+00 9.8152209046359140e-01 2.4577822581982692e-01  2.3732509935679857e+00 9.8263554397170705e-01 2.2290829976070875e-01  2.2839015844823236e+00 9.7841499160151624e-01 2.0520275601591378e-01  2.1955331802549978e+00 9.7848211527795981e-01 1.8530549635091220e-01  2.1069189420157990e+00 9.7721110358463981e-01 1.6911992222139569e-01  2.0191037102894795e+00 9.8146161175668512e-01 1.5242600632167164e-01  1.9347144252852291e+00 9.8533056261575169e-01 1.3603551898278779e-01  1.8457705432047204e+00 9.8845227212020947e-01 1.2279100582135916e-01  1.7561749706316547e+00 9.8277327978535034e-01 1.1561554193940764e-01  1.6693591550617357e+00 9.8735749741471279e-01 9.9937140447726544e-02  1.5804239548067143e+00 9.8665312732737143e-01 9.0010281017219682e-02  1.4933494135321757e+00 9.8020587739178211e-01 8.1134746303296826e-02  1.4056711657314909e+00 9.8690730526219617e-01 6.3836759262268145e-02  1.3198359702458160e+00 9.8427866707168565e-01 5.0531807096825296e-02  1.2327845727385407e+00 9.8614582716947752e-01 4.0197133434350399e-02  1.1434672159961852e+00 9.8091187142664538e-01 3.7761033975213222e-02  1.0551574849987864e+00 9.8717655330622278e-01 2.5436314939212945e-02  9.6657559369245993e-01 9.8540453363260960e-01 1.8105095437200184e-02  8.7720664084360589e-01 9.8908791474390267e-01 1.1959818297980448e-02  7.8929922452373535e-01 9.8797512153918665e-01 2.5755144673661771e-03  7.0269284561045142e-01 9.8971423859689278e-01 -1.6241008153572978e-03  6.1477760893046807e-01 9.9304618292707125e-01 -5.2451445540354887e-03  5.2482167064053953e-01 9.9430870843746333e-01 -1.3463634871505926e-03  4.3759993226383176e-01 9.9395982480205980e-01 1.9539719919634403e-03  3.4994207268451821e-01 9.9757080843412249e-01 1.2266106365112510e-03  2.6140148470289926e-01 9.9094038496274783e-01 2.4514389228192388e-03  1.7447771773612580e-01 9.9145826581263286e-01 0.0000000000000000e+00  8.6177190465079406e-02 9.8552792306169035e-01 0.0000000000000000e+00  8.6791781482473098e+00 7.0293833229155900e-01 3.8416567118233491e+00  8.6497325226589030e+00 5.5155894862233323e-01 3.8130791179076775e+00  8.6183693259896863e+00 4.0201151933631973e-01 3.7857531410065444e+00  8.6032298870156296e+00 2.6628465499489562e-01 3.7867261634203970e+00  8.5743194258221411e+00 1.2299773232793713e-01 3.7656619534457505e+00  8.4798427374556713e+00 0.0000000000000000e+00 3.6687062158017101e+00  8.4096242900290878e+00 0.0000000000000000e+00 3.5930439076987901e+00  8.3346598410823560e+00 0.0000000000000000e+00 3.5120074671163111e+00  8.2579619347372546e+00 0.0000000000000000e+00 3.4338522569707854e+00  8.1753273654315333e+00 0.0000000000000000e+00 3.3704213693899083e+00  8.0965076170483652e+00 0.0000000000000000e+00 3.3014474656159538e+00  8.0157504014481074e+00 0.0000000000000000e+00 3.2348031048316774e+00  7.9361942597307786e+00 0.0000000000000000e+00 3.1688048075385753e+00  7.8586191769415175e+00 0.0000000000000000e+00 3.0980348332389354e+00  7.7747724719414659e+00 0.0000000000000000e+00 3.0401358777405836e+00  7.6953914290344905e+00 0.0000000000000000e+00 2.9793250532651214e+00  7.6163064604428614e+00 0.0000000000000000e+00 2.9112114371090612e+00  7.5358202991986811e+00 0.0000000000000000e+00 2.8498191159439110e+00  7.4504892214489358e+00 0.0000000000000000e+00 2.7925280796253840e+00  7.3701169456572346e+00 0.0000000000000000e+00 2.7309109153325468e+00  7.2907188638076583e+00 0.0000000000000000e+00 2.6648941363412217e+00  7.2095206343967302e+00 0.0000000000000000e+00 2.6031672498190281e+00  7.1286740727011431e+00 0.0000000000000000e+00 2.5383824313641004e+00  7.0458855493574370e+00 0.0000000000000000e+00 2.4762998554307818e+00  6.9650627063311008e+00 0.0000000000000000e+00 2.4170302786459366e+00  6.8810047685647504e+00 0.0000000000000000e+00 2.3559266877102778e+00  6.7910210020600053e+00 0.0000000000000000e+00 2.3111750660690662e+00  6.7072182171104684e+00 0.0000000000000000e+00 2.2505227881124763e+00  6.6221085180860264e+00 0.0000000000000000e+00 2.1953215150668419e+00  6.5382627969505540e+00 0.0000000000000000e+00 2.1356642435408921e+00  6.4526134126947561e+00 0.0000000000000000e+00 2.0808468890205303e+00  6.3691413261746828e+00 0.0000000000000000e+00 2.0145341957136673e+00  6.2801323785365168e+00 0.0000000000000000e+00 1.9649948495900083e+00  6.1939688042137737e+00 0.0000000000000000e+00 1.9053495770717048e+00  6.1062303796091006e+00 0.0000000000000000e+00 1.8552407898686474e+00  6.0219420170165900e+00 0.0000000000000000e+00 1.8011250145696134e+00  5.9392779689747330e+00 0.0000000000000000e+00 1.7501373798547852e+00  5.8583661661265607e+00 0.0000000000000000e+00 1.6921797700650842e+00  5.7719440043617878e+00 0.0000000000000000e+00 1.6408833715261328e+00  5.6839464310840579e+00 0.0000000000000000e+00 1.5897469528484125e+00  5.5972167385086626e+00 0.0000000000000000e+00 1.5441058877446059e+00  5.5093674063524798e+00 0.0000000000000000e+00 1.4941653085039506e+00  5.4241622109474878e+00 0.0000000000000000e+00 1.4496998236095915e+00  5.3359967283558678e+00 0.0000000000000000e+00 1.4093282979260200e+00  5.2513530898229588e+00 0.0000000000000000e+00 1.3590365846016033e+00  5.1638577114027049e+00 0.0000000000000000e+00 1.3157235129820504e+00  5.0796599392109805e+00 0.0000000000000000e+00 1.2677756007477734e+00  4.9900095230184558e+00 0.0000000000000000e+00 1.2230260524487744e+00  4.9047863825105615e+00 0.0000000000000000e+00 1.1805447470964245e+00  4.8188871977333907e+00 0.0000000000000000e+00 1.1378506683075462e+00  4.7310285168763864e+00 0.0000000000000000e+00 1.0999927088581936e+00  4.6421339972627624e+00 0.0000000000000000e+00 1.0621648253684766e+00  4.5602009994097594e+00 0.0000000000000000e+00 1.0176993623575135e+00  4.4679651678784600e+00 0.0000000000000000e+00 9.8340771759440693e-01  4.3819206483444111e+00 0.0000000000000000e+00 9.4148462818961165e-01  4.2951790300017354e+00 0.0000000000000000e+00 9.0240175421067093e-01  4.2102608905498968e+00 0.0000000000000000e+00 8.6380441020277376e-01  4.1241828746873681e+00 0.0000000000000000e+00 8.2934432635467037e-01  4.0381467869015220e+00 0.0000000000000000e+00 7.9351167230996700e-01  3.9485307279925483e+00 0.0000000000000000e+00 7.5619198611611593e-0