<?xml version="1.0"?>
<VTKFile type="UnstructuredGrid"  version="0.1"  >
<UnstructuredGrid>
<Piece  NumberOfPoints="1681" NumberOfCells="3200">
<Points>
<DataArray  type="Float64"  NumberOfComponents="3"  format="ascii">0 0 0  0.5 0 0  1 0 0  1.5 0 0  2 0 0  2.5 0 0  3 0 0  3.5 0 0  4 0 0  4.5 0 0  5 0 0  5.5 0 0  6 0 0  6.5 0 0  7 0 0  7.5 0 0  8 0 0  8.5 0 0  9 0 0  9.5 0 0  10 0 0  10.5 0 0  11 0 0  11.5 0 0  12 0 0  12.5 0 0  13 0 0  13.5 0 0  14 0 0  14.5 0 0  15 0 0  15.5 0 0  16 0 0  16.5 0 0  17 0 0  17.5 0 0  18 0 0  18.5 0 0  19 0 0  19.5 0 0  20 0 0  0 0.5 0  0.5 0.5 0  1 0.5 0  1.5 0.5 0  2 0.5 0  2.5 0.5 0  3 0.5 0  3.5 0.5 0  4 0.5 0  4.5 0.5 0  5 0.5 0  5.5 0.5 0  6 0.5 0  6.5 0.5 0  7 0.5 0  7.5 0.5 0  8 0.5 0  8.5 0.5 0  9 0.5 0  9.5 0.5 0  10 0.5 0  10.5 0.5 0  11 0.5 0  11.5 0.5 0  12 0.5 0  12.5 0.5 0  13 0.5 0  13.5 0.5 0  14 0.5 0  14.5 0.5 0  15 0.5 0  15.5 0.5 0  16 0.5 0  16.5 0.5 0  17 0.5 0  17.5 0.5 0  18 0.5 0  18.5 0.5 0  19 0.5 0  19.5 0.5 0  20 0.5 0  0 1 0  0.5 1 0  1 1 0  1.5 1 0  2 1 0  2.5 1 0  3 1 0  3.5 1 0  4 1 0  4.5 1 0  5 1 0  5.5 1 0  6 1 0  6.5 1 0  7 1 0  7.5 1 0  8 1 0  8.5 1 0  9 1 0  9.5 1 0  10 1 0  10.5 1 0  11 1 0  11.5 1 0  12 1 0  12.5 1 0  13 1 0  13.5 1 0  14 1 0  14.5 1 0  15 1 0  15.5 1 0  16 1 0  16.5 1 0  17 1 0  17.5 1 0  18 1 0  18.5 1 0  19 1 0  19.5 1 0  20 1 0  0 1.5 0  0.5 1.5 0  1 1.5 0  1.5 1.5 0  2 1.5 0  2.5 1.5 0  3 1.5 0  3.5 1.5 0  4 1.5 0  4.5 1.5 0  5 1.5 0  5.5 1.5 0  6 1.5 0  6.5 1.5 0  7 1.5 0  7.5 1.5 0  8 1.5 0  8.5 1.5 0  9 1.5 0  9.5 1.5 0  10 1.5 0  10.5 1.5 0  11 1.5 0  11.5 1.5 0  12 1.5 0  12.5 1.5 0  13 1.5 0  13.5 1.5 0  14 1.5 0  14.5 1.5 0  15 1.5 0  15.5 1.5 0  16 1.5 0  16.5 1.5 0  17 1.5 0  17.5 1.5 0  18 1.5 0  18.5 1.5 0  19 1.5 0  19.5 1.5 0  20 1.5 0  0 2 0  0.5 2 0  1 2 0  1.5 2 0  2 2 0  2.5 2 0  3 2 0  3.5 2 0  4 2 0  4.5 2 0  5 2 0  5.5 2 0  6 2 0  6.5 2 0  7 2 0  7.5 2 0  8 2 0  8.5 2 0  9 2 0  9.5 2 0  10 2 0  10.5 2 0  11 2 0  11.5 2 0  12 2 0  12.5 2 0  13 2 0  13.5 2 0  14 2 0  14.5 2 0  15 2 0  15.5 2 0  16 2 0  16.5 2 0  17 2 0  17.5 2 0  18 2 0  18.5 2 0  19 2 0  19.5 2 0  20 2 0  0 2.5 0  0.5 2.5 0  1 2.5 0  1.5 2.5 0  2 2.5 0  2.5 2.5 0  3 2.5 0  3.5 2.5 0  4 2.5 0  4.5 2.5 0  5 2.5 0  5.5 2.5 0  6 2.5 0  6.5 2.5 0  7 2.5 0  7.5 2.5 0  8 2.5 0  8.5 2.5 0  9 2.5 0  9.5 2.5 0  10 2.5 0  10.5 2.5 0  11 2.5 0  11.5 2.5 0  12 2.5 0  12.5 2.5 0  13 2.5 0  13.5 2.5 0  14 2.5 0  14.5 2.5 0  15 2.5 0  15.5 2.5 0  16 2.5 0  16.5 2.5 0  17 2.5 0  17.5 2.5 0  18 2.5 0  18.5 2.5 0  19 2.5 0  19.5 2.5 0  20 2.5 0  0 3 0  0.5 3 0  1 3 0  1.5 3 0  2 3 0  2.5 3 0  3 3 0  3.5 3 0  4 3 0  4.5 3 0  5 3 0  5.5 3 0  6 3 0  6.5 3 0  7 3 0  7.5 3 0  8 3 0  8.5 3 0  9 3 0  9.5 3 0  10 3 0  10.5 3 0  11 3 0  11.5 3 0  12 3 0  12.5 3 0  13 3 0  13.5 3 0  14 3 0  14.5 3 0  15 3 0  15.5 3 0  16 3 0  16.5 3 0  17 3 0  17.5 3 0  18 3 0  18.5 3 0  19 3 0  19.5 3 0  20 3 0  0 3.5 0  0.5 3.5 0  1 3.5 0  1.5 3.5 0  2 3.5 0  2.5 3.5 0  3 3.5 0  3.5 3.5 0  4 3.5 0  4.5 3.5 0  5 3.5 0  5.5 3.5 0  6 3.5 0  6.5 3.5 0  7 3.5 0  7.5 3.5 0  8 3.5 0  8.5 3.5 0  9 3.5 0  9.5 3.5 0  10 3.5 0  10.5 3.5 0  11 3.5 0  11.5 3.5 0  12 3.5 0  12.5 3.5 0  13 3.5 0  13.5 3.5 0  14 3.5 0  14.5 3.5 0  15 3.5 0  15.5 3.5 0  16 3.5 0  16.5 3.5 0  17 3.5 0  17.5 3.5 0  18 3.5 0  18.5 3.5 0  19 3.5 0  19.5 3.5 0  20 3.5 0  0 4 0  0.5 4 0  1 4 0  1.5 4 0  2 4 0  2.5 4 0  3 4 0  3.5 4 0  4 4 0  4.5 4 0  5 4 0  5.5 4 0  6 4 0  6.5 4 0  7 4 0  7.5 4 0  8 4 0  8.5 4 0  9 4 0  9.5 4 0  10 4 0  10.5 4 0  11 4 0  11.5 4 0  12 4 0  12.5 4 0  13 4 0  13.5 4 0  14 4 0  14.5 4 0  15 4 0  15.5 4 0  16 4 0  16.5 4 0  17 4 0  17.5 4 0  18 4 0  18.5 4 0  19 4 0  19.5 4 0  20 4 0  0 4.5 0  0.5 4.5 0  1 4.5 0  1.5 4.5 0  2 4.5 0  2.5 4.5 0  3 4.5 0  3.5 4.5 0  4 4.5 0  4.5 4.5 0  5 4.5 0  5.5 4.5 0  6 4.5 0  6.5 4.5 0  7 4.5 0  7.5 4.5 0  8 4.5 0  8.5 4.5 0  9 4.5 0  9.5 4.5 0  10 4.5 0  10.5 4.5 0  11 4.5 0  11.5 4.5 0  12 4.5 0  12.5 4.5 0  13 4.5 0  13.5 4.5 0  14 4.5 0  14.5 4.5 0  15 4.5 0  15.5 4.5 0  16 4.5 0  16.5 4.5 0  17 4.5 0  17.5 4.5 0  18 4.5 0  18.5 4.5 0  19 4.5 0  19.5 4.5 0  20 4.5 0  0 5 0  0.5 5 0  1 5 0  1.5 5 0  2 5 0  2.5 5 0  3 5 0  3.5 5 0  4 5 0  4.5 5 0  5 5 0  5.5 5 0  6 5 0  6.5 5 0  7 5 0  7.5 5 0  8 5 0  8.5 5 0  9 5 0  9.5 5 0  10 5 0  10.5 5 0  11 5 0  11.5 5 0  12 5 0  12.5 5 0  13 5 0  13.5 5 0  14 5 0  14.5 5 0  15 5 0  15.5 5 0  16 5 0  16.5 5 0  17 5 0  17.5 5 0  18 5 0  18.5 5 0  19 5 0  19.5 5 0  20 5 0  0 5.5 0  0.5 5.5 0  1 5.5 0  1.5 5.5 0  2 5.5 0  2.5 5.5 0  3 5.5 0  3.5 5.5 0  4 5.5 0  4.5 5.5 0  5 5.5 0  5.5 5.5 0  6 5.5 0  6.5 5.5 0  7 5.5 0  7.5 5.5 0  8 5.5 0  8.5 5.5 0  9 5.5 0  9.5 5.5 0  10 5.5 0  10.5 5.5 0  11 5.5 0  11.5 5.5 0  12 5.5 0  12.5 5.5 0  13 5.5 0  13.5 5.5 0  14 5.5 0  14.5 5.5 0  15 5.5 0  15.5 5.5 0  16 5.5 0  16.5 5.5 0  17 5.5 0  17.5 5.5 0  18 5.5 0  18.5 5.5 0  19 5.5 0  19.5 5.5 0  20 5.5 0  0 6 0  0.5 6 0  1 6 0  1.5 6 0  2 6 0  2.5 6 0  3 6 0  3.5 6 0  4 6 0  4.5 6 0  5 6 0  5.5 6 0  6 6 0  6.5 6 0  7 6 0  7.5 6 0  8 6 0  8.5 6 0  9 6 0  9.5 6 0  10 6 0  10.5 6 0  11 6 0  11.5 6 0  12 6 0  12.5 6 0  13 6 0  13.5 6 0  14 6 0  14.5 6 0  15 6 0  15.5 6 0  16 6 0  16.5 6 0  17 6 0  17.5 6 0  18 6 0  18.5 6 0  19 6 0  19.5 6 0  20 6 0  0 6.5 0  0.5 6.5 0  1 6.5 0  1.5 6.5 0  2 6.5 0  2.5 6.5 0  3 6.5 0  3.5 6.5 0  4 6.5 0  4.5 6.5 0  5 6.5 0  5.5 6.5 0  6 6.5 0  6.5 6.5 0  7 6.5 0  7.5 6.5 0  8 6.5 0  8.5 6.5 0  9 6.5 0  9.5 6.5 0  10 6.5 0  10.5 6.5 0  11 6.5 0  11.5 6.5 0  12 6.5 0  12.5 6.5 0  13 6.5 0  13.5 6.5 0  14 6.5 0  14.5 6.5 0  15 6.5 0  15.5 6.5 0  16 6.5 0  16.5 6.5 0  17 6.5 0  17.5 6.5 0  18 6.5 0  18.5 6.5 0  19 6.5 0  19.5 6.5 0  20 6.5 0  0 7 0  0.5 7 0  1 7 0  1.5 7 0  2 7 0  2.5 7 0  3 7 0  3.5 7 0  4 7 0  4.5 7 0  5 7 0  5.5 7 0  6 7 0  6.5 7 0  7 7 0  7.5 7 0  8 7 0  8.5 7 0  9 7 0  9.5 7 0  10 7 0  10.5 7 0  11 7 0  11.5 7 0  12 7 0  12.5 7 0  13 7 0  13.5 7 0  14 7 0  14.5 7 0  15 7 0  15.5 7 0  16 7 0  16.5 7 0  17 7 0  17.5 7 0  18 7 0  18.5 7 0  19 7 0  19.5 7 0  20 7 0  0 7.5 0  0.5 7.5 0  1 7.5 0  1.5 7.5 0  2 7.5 0  2.5 7.5 0  3 7.5 0  3.5 7.5 0  4 7.5 0  4.5 7.5 0  5 7.5 0  5.5 7.5 0  6 7.5 0  6.5 7.5 0  7 7.5 0  7.5 7.5 0  8 7.5 0  8.5 7.5 0  9 7.5 0  9.5 7.5 0  10 7.5 0  10.5 7.5 0  11 7.5 0  11.5 7.5 0  12 7.5 0  12.5 7.5 0  13 7.5 0  13.5 7.5 0  14 7.5 0  14.5 7.5 0  15 7.5 0  15.5 7.5 0  16 7.5 0  16.5 7.5 0  17 7.5 0  17.5 7.5 0  18 7.5 0  18.5 7.5 0  19 7.5 0  19.5 7.5 0  20 7.5 0  0 8 0  0.5 8 0  1 8 0  1.5 8 0  2 8 0  2.5 8 0  3 8 0  3.5 8 0  4 8 0  4.5 8 0  5 8 0  5.5 8 0  6 8 0  6.5 8 0  7 8 0  7.5 8 0  8 8 0  8.5 8 0  9 8 0  9.5 8 0  10 8 0  10.5 8 0  11 8 0  11.5 8 0  12 8 0  12.5 8 0  13 8 0  13.5 8 0  14 8 0  14.5 8 0  15 8 0  15.5 8 0  16 8 0  16.5 8 0  17 8 0  17.5 8 0  18 8 0  18.5 8 0  19 8 0  19.5 8 0  20 8 0  0 8.5 0  0.5 8.5 0  1 8.5 0  1.5 8.5 0  2 8.5 0  2.5 8.5 0  3 8.5 0  3.5 8.5 0  4 8.5 0  4.5 8.5 0  5 8.5 0  5.5 8.5 0  6 8.5 0  6.5 8.5 0  7 8.5 0  7.5 8.5 0  8 8.5 0  8.5 8.5 0  9 8.5 0  9.5 8.5 0  10 8.5 0  10.5 8.5 0  11 8.5 0  11.5 8.5 0  12 8.5 0  12.5 8.5 0  13 8.5 0  13.5 8.5 0  14 8.5 0  14.5 8.5 0  15 8.5 0  15.5 8.5 0  16 8.5 0  16.5 8.5 0  17 8.5 0  17.5 8.5 0  18 8.5 0  18.5 8.5 0  19 8.5 0  19.5 8.5 0  20 8.5 0  0 9 0  0.5 9 0  1 9 0  1.5 9 0  2 9 0  2.5 9 0  3 9 0  3.5 9 0  4 9 0  4.5 9 0  5 9 0  5.5 9 0  6 9 0  6.5 9 0  7 9 0  7.5 9 0  8 9 0  8.5 9 0  9 9 0  9.5 9 0  10 9 0  10.5 9 0  11 9 0  11.5 9 0  12 9 0  12.5 9 0  13 9 0  13.5 9 0  14 9 0  14.5 9 0  15 9 0  15.5 9 0  16 9 0  16.5 9 0  17 9 0  17.5 9 0  18 9 0  18.5 9 0  19 9 0  19.5 9 0  20 9 0  0 9.5 0  0.5 9.5 0  1 9.5 0  1.5 9.5 0  2 9.5 0  2.5 9.5 0  3 9.5 0  3.5 9.5 0  4 9.5 0  4.5 9.5 0  5 9.5 0  5.5 9.5 0  6 9.5 0  6.5 9.5 0  7 9.5 0  7.5 9.5 0  8 9.5 0  8.5 9.5 0  9 9.5 0  9.5 9.5 0  10 9.5 0  10.5 9.5 0  11 9.5 0  11.5 9.5 0  12 9.5 0  12.5 9.5 0  13 9.5 0  13.5 9.5 0  14 9.5 0  14.5 9.5 0  15 9.5 0  15.5 9.5 0  16 9.5 0  16.5 9.5 0  17 9.5 0  17.5 9.5 0  18 9.5 0  18.5 9.5 0  19 9.5 0  19.5 9.5 0  20 9.5 0  0 10 0  0.5 10 0  1 10 0  1.5 10 0  2 10 0  2.5 10 0  3 10 0  3.5 10 0  4 10 0  4.5 10 0  5 10 0  5.5 10 0  6 10 0  6.5 10 0  7 10 0  7.5 10 0  8 10 0  8.5 10 0  9 10 0  9.5 10 0  10 10 0  10.5 10 0  11 10 0  11.5 10 0  12 10 0  12.5 10 0  13 10 0  13.5 10 0  14 10 0  14.5 10 0  15 10 0  15.5 10 0  16 10 0  16.5 10 0  17 10 0  17.5 10 0  18 10 0  18.5 10 0  19 10 0  19.5 10 0  20 10 0  0 10.5 0  0.5 10.5 0  1 10.5 0  1.5 10.5 0  2 10.5 0  2.5 10.5 0  3 10.5 0  3.5 10.5 0  4 10.5 0  4.5 10.5 0  5 10.5 0  5.5 10.5 0  6 10.5 0  6.5 10.5 0  7 10.5 0  7.5 10.5 0  8 10.5 0  8.5 10.5 0  9 10.5 0  9.5 10.5 0  10 10.5 0  10.5 10.5 0  11 10.5 0  11.5 10.5 0  12 10.5 0  12.5 10.5 0  13 10.5 0  13.5 10.5 0  14 10.5 0  14.5 10.5 0  15 10.5 0  15.5 10.5 0  16 10.5 0  16.5 10.5 0  17 10.5 0  17.5 10.5 0  18 10.5 0  18.5 10.5 0  19 10.5 0  19.5 10.5 0  20 10.5 0  0 11 0  0.5 11 0  1 11 0  1.5 11 0  2 11 0  2.5 11 0  3 11 0  3.5 11 0  4 11 0  4.5 11 0  5 11 0  5.5 11 0  6 11 0  6.5 11 0  7 11 0  7.5 11 0  8 11 0  8.5 11 0  9 11 0  9.5 11 0  10 11 0  10.5 11 0  11 11 0  11.5 11 0  12 11 0  12.5 11 0  13 11 0  13.5 11 0  14 11 0  14.5 11 0  15 11 0  15.5 11 0  16 11 0  16.5 11 0  17 11 0  17.5 11 0  18 11 0  18.5 11 0  19 11 0  19.5 11 0  20 11 0  0 11.5 0  0.5 11.5 0  1 11.5 0  1.5 11.5 0  2 11.5 0  2.5 11.5 0  3 11.5 0  3.5 11.5 0  4 11.5 0  4.5 11.5 0  5 11.5 0  5.5 11.5 0  6 11.5 0  6.5 11.5 0  7 11.5 0  7.5 11.5 0  8 11.5 0  8.5 11.5 0  9 11.5 0  9.5 11.5 0  10 11.5 0  10.5 11.5 0  11 11.5 0  11.5 11.5 0  12 11.5 0  12.5 11.5 0  13 11.5 0  13.5 11.5 0  14 11.5 0  14.5 11.5 0  15 11.5 0  15.5 11.5 0  16 11.5 0  16.5 11.5 0  17 11.5 0  17.5 11.5 0  18 11.5 0  18.5 11.5 0  19 11.5 0  19.5 11.5 0  20 11.5 0  0 12 0  0.5 12 0  1 12 0  1.5 12 0  2 12 0  2.5 12 0  3 12 0  3.5 12 0  4 12 0  4.5 12 0  5 12 0  5.5 12 0  6 12 0  6.5 12 0  7 12 0  7.5 12 0  8 12 0  8.5 12 0  9 12 0  9.5 12 0  10 12 0  10.5 12 0  11 12 0  11.5 12 0  12 12 0  12.5 12 0  13 12 0  13.5 12 0  14 12 0  14.5 12 0  
[...]
<PointData  Scalars="f_5623-1"> 
<DataArray  type="Float64"  Name="f_5623-1"  format="ascii">-3.4274669377320416e-01  -3.4274767821784130e-01  -3.4275008255607503e-01  -3.4275422967505381e-01  -3.4276054832784986e-01  -3.4276965190893255e-01  -3.4278239487067819e-01  -3.4279993648679330e-01  -3.4282382081454060e-01  -3.4285607751634767e-01  -3.4289934756641866e-01  -3.4295703799912242e-01  -3.4303351009267707e-01  -3.4313430551893265e-01  -3.4326641491841248e-01  -3.4343859298268603e-01  -3.4366172333994183e-01  -3.4394923522992638e-01  -3.4431757199918045e-01  -3.4478670872549888e-01  -3.4538071268636761e-01  -3.4612833585392389e-01  -3.4706362313697681e-01  -3.4822651382804465e-01  -3.4966340695852310e-01  -3.5142765456898523e-01  -3.5357994111333035e-01  -3.5618850350564940e-01  -3.5932914613609374e-01  -3.6308501010374117e-01  -3.6754606735707157e-01  -3.7280832922624207e-01  -3.7897278471854950e-01  -3.8614411515680602e-01  -3.9442926485638535e-01  -4.0393597796074499e-01  -4.1477143486895196e-01  -4.2704113662113968e-01  -4.4084820105385875e-01  -4.5629328946470199e-01  -4.7347560047330323e-01  -3.4274767821784136e-01  -3.4274849787185296e-01  -3.4275087348710254e-01  -3.4275502494997523e-01  -3.4276135895600734e-01  -3.4277048442785035e-01  -3.4278325560162032e-01  -3.4280083281276796e-01  -3.4282476174754006e-01  -3.4285707408709004e-01  -3.4290041316999414e-01  -3.4295818872660022e-01  -3.4303476504612046e-01  -3.4313568709275710e-01  -3.4326794902028074e-01  -3.4344030915856316e-01  -3.4366365475968452e-01  -3.4395141848201111e-01  -3.4432004663661697e-01  -3.4478951650089956e-01  -3.4538389641439560e-01  -3.4613193784642887e-01  -3.4706768317318454e-01  -3.4823106665275100e-01  -3.4966847934879008e-01  -3.5143326207659908e-01  -3.5358608467568708e-01  -3.5619516621619912e-01  -3.5933629056407684e-01  -3.6309257662971878e-01  -3.6755397401468004e-01  -3.7281647347374747e-01  -3.7898104736350635e-01  -3.8615236626831861e-01  -3.9443737080247421e-01  -4.0394380730511981e-01  -4.1477885727331593e-01  -4.2704799757364498e-01  -4.4085421538964847e-01  -4.5629765181479398e-01  -4.7347560047330323e-01  -3.4275008255607503e-01  -3.4275087348710254e-01  -3.4275323771692179e-01  -3.4275739377090392e-01  -3.4276374217838790e-01  -3.4277288907172782e-01  -3.4278568815517685e-01  -3.4280330039983425e-01  -3.4282727277548303e-01  -3.4285963867703639e-01  -3.4290304349388900e-01  -3.4296089929371221e-01  -3.4303757294456932e-01  -3.4313861217278901e-01  -3.4327101399433485e-01  -3.4344353958452656e-01  -3.4366707886685588e-01  -3.4395506679420634e-01  -3.4432395134428967e-01  -3.4479371053535007e-01  -3.4538841218376870e-01  -3.4613680560722504e-01  -3.4707292903455811e-01  -3.4823671024581582e-01  -3.4967453124049414e-01  -3.5143972106659960e-01  -3.5359293518098461e-01  -3.5620237601330618e-01  -3.5934380920734099e-01  -3.6310033487538235e-01  -3.6756188452492194e-01  -3.7282443291860540e-01  -3.7898893973762571e-01  -3.8616006672717529e-01  -3.9444474846484556e-01  -4.0395072396001847e-01  -4.1478515612950367e-01  -4.2705347117544490e-01  -4.4085853548016024e-01  -4.5630025142906194e-01  -4.7347560047330323e-01  -3.4275422967505381e-01  -3.4275502494997523e-01  -3.4275739377090392e-01  -3.4276156050992512e-01  -3.4276792582455962e-01  -3.4277709537100259e-01  -3.4278992292922500e-01  -3.4280757014308966e-01  -3.4283158512017370e-01  -3.4286400274870799e-01  -3.4290747019236706e-01  -3.4296540151506422e-01  -3.4304216574145241e-01  -3.4314331283727106e-01  -3.4327584203757122e-01  -3.4344851658046455e-01  -3.4367222812214598e-01  -3.4396041280412615e-01  -3.4432951899562619e-01  -3.4479952402309039e-01  -3.4539449362057689e-01  -3.4614317332453420e-01  -3.4707959560289853e-01  -3.4824368028022917e-01  -3.4968179910365088e-01  -3.5144726863438314e-01  -3.5360072988644825e-01  -3.5621036942450024e-01  -3.5935193640737378e-01  -3.6310851487966800e-01  -3.6757002186828941e-01  -3.7283242035023278e-01  -3.7899666165193013e-01  -3.8616740251277021e-01  -3.9445157435570732e-01  -4.0395691124441208e-01  -4.1479056292097588e-01  -4.2705792527526665e-01  -4.4086181002301666e-01  -4.5630204974080762e-01  -4.7347560047330323e-01  -3.4276054832784986e-01  -3.4276135895600734e-01  -3.4276374217838790e-01  -3.4276792582455962e-01  -3.4277431182982726e-01  -3.4278350638087540e-01  -3.4279636379691991e-01  -3.4281404651109937e-01  -3.4283810370255113e-01  -3.4287057158184941e-01  -3.4291409883713536e-01  -3.4297210120067112e-01  -3.4304894943698028e-01  -3.4315019522961221e-01  -3.4328283938790627e-01  -3.4345564642626886e-01  -3.4367950878885639e-01  -3.4396786269091045e-01  -3.4433715560430550e-01  -3.4480736270946644e-01  -3.4540254606453175e-01  -3.4615144574039536e-01  -3.4708808674519281e-01  -3.4825237934148989e-01  -3.4969068364804357e-01  -3.5145630275875511e-01  -3.5360986284102247e-01  -3.5621953494734843e-01  -3.5936105301533444e-01  -3.6311748729700366e-01  -3.6757874364754678e-01  -3.7284077753730821e-01  -3.7900453707080028e-01  -3.8617467991776705e-01  -3.9445814138405288e-01  -4.0396265994492997e-01  -4.1479538695172191e-01  -4.2706171426755812e-01  -4.4086444505268096e-01  -4.5630341012581183e-01  -4.7347560047330323e-01  -3.4276965190893255e-01  -3.4277048442785035e-01  -3.4277288907172782e-01  -3.4277709537100259e-01  -3.4278350638087540e-01  -3.4279272906049435e-01  -3.4280561845423202e-01  -3.4282333783408570e-01  -3.4284743738368911e-01  -3.4287995447678810e-01  -3.4292353908500423e-01  -3.4298160828375013e-01  -3.4305853415726756e-01  -3.4315986957604494e-01  -3.4329261626363861e-01  -3.4346553920219103e-01  -3.4368953064873292e-01  -3.4397802573638026e-01  -3.4434746969585700e-01  -3.4481783403375149e-01  -3.4541317544024652e-01  -3.4616222670523139e-01  -3.4709900350499945e-01  -3.4826340470833927e-01  -3.4970177714289241e-01  -3.5146740910074908e-01  -3.5362091108003257e-01  -3.5623043850692926e-01  -3.5937171088576991e-01  -3.6312778653849898e-01  -3.6758856322207839e-01  -3.7284999328409463e-01  -3.7901302739199760e-01  -3.8618233149157177e-01  -3.9446485405365628e-01  -4.0396834997611836e-01  -4.1479998829759074e-01  -4.2706517853831599e-01  -4.4086674268010428e-01  -4.5630453755440270e-01  -4.7347560047330323e-01  -3.4278239487067819e-01  -3.4278325560162032e-01  -3.4278568815517685e-01  -3.4278992292922500e-01  -3.4279636379691991e-01  -3.4280561845423202e-01  -3.4281854268511558e-01  -3.4283630057316505e-01  -3.4286044321123038e-01  -3.4289300896710473e-01  -3.4293664884836694e-01  -3.4299478093877600e-01  -3.4307177820647866e-01  -3.4317319415442543e-01  -3.4330603072690863e-01  -3.4347905251973671e-01  -3.4370315056712369e-01  -3.4399175768462897e-01  -3.4436131541454734e-01  -3.4483178992833041e-01  -3.4542723068537157e-01  -3.4617636116267569e-01  -3.4711318556180298e-01  -3.4827758919255325e-01  -3.4971590352702736e-01  -3.5148140025071845e-01  -3.5363467283972544e-01  -3.5624386041258577e-01  -3.5938466826582383e-01  -3.6314014416076451e-01  -3.6760018049437482e-01  -3.7286073080181115e-01  -3.7902275438041205e-01  -3.8619093345975103e-01  -3.9447223983427732e-01  -4.0397445736499771e-01  -4.1480478781971214e-01  -4.2706867550011723e-01  -4.4086897856078361e-01  -4.5630559270910620e-01  -4.7347560047330323e-01  -3.4279993648679330e-01  -3.4280083281276796e-01  -3.4280330039983425e-01  -3.4280757014308966e-01  -3.4281404651109937e-01  -3.4282333783408570e-01  -3.4283630057316505e-01  -3.4285409954477908e-01  -3.4287828662565090e-01  -3.4291090098877625e-01  -3.4295459441197329e-01  -3.4301278563009147e-01  -3.4308984802870807e-01  -3.4319133514662875e-01  -3.4332424839850456e-01  -3.4349735106429696e-01  -3.4372153182117937e-01  -3.4401021980460855e-01  -3.4437985125891601e-01  -3.4485038515408495e-01  -3.4544586159951318e-01  -3.4619499241065366e-01  -3.4713176778546301e-01  -3.4829605684723153e-01  -3.4973417310595600e-01  -3.5149936921662950e-01  -3.5365221959698162e-01  -3.5626084565415117e-01  -3.5940093798271922e-01  -3.6315553449430010e-01  -3.6761452443731252e-01  -3.7287386652036880e-01  -3.7903453465973563e-01  -3.8620123551747904e-01  -3.9448097456469172e-01  -4.0398157704064802e-01  -4.1481029144222653e-01  -4.2707261136359598e-01  -4.4087144409542323e-01  -4.5630673210524519e-01  -4.7347560047330323e-01  -3.4282382081454060e-01  -3.4282476174754006e-01  -3.4282727277548303e-01  -3.4283158512017370e-01  -3.4283810370255113e-01  -3.4284743738368906e-01  -3.4286044321123033e-01  -3.4287828662565090e-01  -3.4290252013593403e-01  -3.4293518350633090e-01  -3.4297892899059118e-01  -3.4303717558073404e-01  -3.4311429656428266e-01  -3.4321584485367318e-01  -3.4334882049668147e-01  -3.4352198441450382e-01  -3.4374622164688079e-01  -3.4403495610042134e-01  -3.4440461687735946e-01  -3.4487515358749504e-01  -3.4547059451076634e-01  -3.4621963701407676e-01  -3.4715625423722668e-01  -3.4832029586961738e-01  -3.4975805413629929e-01  -3.5152275943016809e-01  -3.5367496419038413e-01  -3.5628276977724699e-01  -3.5942185065286358e-01  -3.6317523470614110e-01  -3.6763280948309252e-01  -3.7289054226828350e-01  -3.7904942722497614e-01  -3.8621420344782975e-01  -3.9449192041182457e-01  -4.0399045706523673e-01  -4.1481712225481920e-01  -4.2707747254216022e-01  -4.4087447618697528e-01  -4.5630812975845231e-01  -4.7347560047330323e-01  -3.4285607751634772e-01  -3.4285707408709004e-01  -3.4285963867703639e-01  -3.4286400274870799e-01  -3.4287057158184941e-01  -3.4287995447678810e-01  -3.4289300896710473e-01  -3.4291090098877625e-01  -3.4293518350633095e-01  -3.4296789663015476e-01  -3.4301169275524679e-01  -3.4306999068313049e-01  -3.4314716301593262e-01  -3.4324876128220599e-01  -3.4338178320083096e-01  -3.4355498613002816e-01  -3.4377924998579956e-01  -3.4406799163731638e-01  -3.4443763087632523e-01  -3.4490810539360783e-01  -3.4550342867221301e-01  -3.4625228025596505e-01  -3.4718861247462723e-01  -3.4835225152222998e-01  -3.4978946408374445e-01  -3.5155345401484228e-01  -3.5370474771946886e-01  -3.5631142297869106e-01  -3.5944913548221447e-01  -3.6320090176436898e-01  -3.6765660808001227e-01  -3.7291223285598685e-01  -3.7906879555505585e-01  -3.8623107542186530e-01  -3.9450617626192985e-01  -4.0400204329214484e-01  -4.1482605972359843e-01  -4.2708385931293086e-01  -4.4087848400570245e-01  -4.5630999354665214e-01  -4.7347560047330323e-01  -3.4289934756641866e-01  -3.4290041316999414e-01  -3.4290304349388900e-01  -3.4290747019236706e-01  -3.4291409883713536e-01  -3.4292353908500423e-01  -3.4293664884836694e-01  -3.4295459441197329e-01  -3.4297892899059118e-01  -3.4301169275524679e-01  -3.4305553785203158e-01  -3.4311388236910351e-01  -3.4319109753525351e-01  -3.4329273260497639e-01  -3.4342578183373784e-01  -3.4359899759121976e-01  -3.4382325290281113e-01  -3.4411195544013501e-01  -3.4448151308058411e-01  -3.4495184850369548e-01  -3.4554695678257902e-01  -3.4629549549192473e-01  -3.4723139149058113e-01  -3.4839444236184247e-01  -3.4983088379605970e-01  -3.5159388750086223e-01  -3.5374394833881945e-01  -3.5634911545474901e-01  -3.5948502158325168e-01  -3.6323466908638113e-01  -3.6768794200021282e-01  -3.7294083136604433e-01  -3.7909438624396735e-01  -3.8625343340985030e-01  -3.9452514146176376e-01  -4.0401753507662891e-01  -4.1483808698178704e-01  -4.2709252402476205e-01  -4.4088397684376796e-01  -4.5631258055561558e-01  -4.7347560047330323e-01  -3.4295703799912242e-01  -3.4295818872660028e-01  -3.4296089929371226e-01  -3.4296540151506422e-01  -3.4297210120067112e-01  -3.4298160828375013e-01  -3.4299478093877594e-01  -3.4301278563009141e-01  -3.4303717558073399e-01  -3.4306999068313043e-01  -3.4311388236910351e-01  -3.4317226738815038e-01  -3.4324951477105820e-01  -3.4335117042862290e-01  -3.4348422378628080e-01  -3.4365742050343456e-01  -3.4388162457464672e-01  -3.4417023184870421e-01  -3.4453963511169639e-01  -3.4500973824168141e-01  -3.4560451344866433e-01  -3.4635259119380191e-01  -3.4728786703430586e-01  -3.4845010347801059e-01  -3.4988549823753479e-01  -3.5164718356609975e-01  -3.5379561544427418e-01  -3.5639880739780228e-01  -3.5953236307611275e-01  -3.6327926597511900e-01  -3.6772939529299475e-01  -3.7297875477899989e-01  -3.7912842645541739e-01  -3.8628329164819047e-01  -3.9455059452195901e-01  -4.0403845346436995e-01  -4.1485444771673124e-01  -4.2710441575731528e-01  -4.4089159536328348e-01  -4.5631621344209744e-01  -4.7347560047330323e-01  -3.4303351009267702e-01  -3.4303476504612046e-01  -3.4303757294456932e-01  -3.4304216574145241e-01  -3.4304894943698028e-01  -3.4305853415726756e-01  -3.4307177820647866e-01  -3.4308984802870807e-01  -3.4311429656428266e-01  -3.4314716301593262e-01  -3.4319109753525351e-01  -3.4324951477105820e-01  -3.4332678054962301e-01  -3.4342843613077068e-01  -3.4356146443735452e-01  -3.4373460230807257e-01  -3.4395870207861162e-01  -3.4424714454438582e-01  -3.4461630348074829e-01  -3.4508605927355418e-01  -3.4568035573732375e-01  -3.4642778979820649e-01  -3.4736221839073383e-01  -3.4852336077024104e-01  -3.4995736775572833e-01  -3.5171732270251793e-01  -3.5386363306242880e-01  -3.5646426734330366e-01  -3.5959479153991875e-01  -3.6333816324075741e-01  -3.6778425207424653e-01  -3.7302907287724035e-01  -3.7917374285894961e-01  -3.8632320451838076e-01  -3.9458478885733128e-01  -4.0406672372164271e-01  -4.1487671441354357e-01  -4.2712073317045346e-01  -4.4090214789766491e-01  -4.5632129904138741e-01  -4.7347560047330323e-01  -3.4313430551893265e-01  -3.4313568709275710e-01  -3.4313861217278901e-01  -3.4314331283727106e-01  -3.4315019522961226e-01  -3.4315986957604494e-01  -3.4317319415442543e-01  -3.4319133514662875e-01  -3.4321584485367318e-01  -3.4324876128220599e-01  -3.4329273260497645e-01  -3.4335117042862290e-01  -3.4342843613077062e-01  -3.4353006470372749e-01  -3.4366303049857932e-01  -3.4383605892079766e-01  -3.4405998739111621e-01  -3.4434817764441672e-01  -3.4471697957624281e-01  -3.4518624424147248e-01  -3.4577988015522182e-01  -3.4652644266926336e-01  -3.4745974089214199e-01  -3.4861944049337396e-01  -3.5005163405523204e-01  -3.5180934391444130e-01  -3.5395291646459215e-01  -3.5655026278204416e-01  -3.5967689959773586e-01  -3.6341574862976439e-01  -3.6785666257893856e-01  -3.7309566362481411e-01  -3.7923390498692816e-01  -3.8637639650105171e-01  -3.9463056795185480e-01  -4.0410477434014774e-01  -4.1490686986163106e-01  -4.2714298722663813e-01  -4.4091665319171630e-01  -4.5632835009331563e-01  -4.7347560047330323e-01  -3.4326641491841242e-01  -3.4326794902028074e-01  -3.4327101399433479e-01  -3.4327584203757122e-01  -3.4328283938790627e-01  -3.4329261626363866e-01  -3.4330603072690863e-01  -3.4332424839850451e-01  -3.4334882049668147e-01  -3.4338178320083096e-01  -3.4342578183373784e-01  -3.4348422378628080e-01  -3.4356146443735452e-01  -3.4366303049857932e-01  -3.4379588517311838e-01  -3.4396873918083248e-01  -3.4419241097324571e-01  -3.4448023823301216e-01  -3.4484854090582601e-01  -3.4531713342833464e-01  -3.4590988038586118e-01  -3.4665528548445562e-01  -3.4758709844457697e-01  -3.4874491832012933e-01  -3.5017476508426637e-01  -3.5192958459912116e-01  -3.5406964608476443e-01  -3.5666278702705795e-01  -3.5978445951074978e-01  -3.6351753579562818e-01  -3.6795184103903816e-01  -3.7318339838175341e-01  -3.7931339613705140e-01  -3.8644691707103768e-01  -3.9469150253811158e-01  -4.0415565481880539e-01  -4.1494740392540386e-01  -4.2717307545451760e-01  -4.4093639084101782e-01  -4.5633801080305364e-01  -4.7347560047330323e-01  -3.4343859298268603e-01  -3.4344030915856316e-01  -3.4344353958452656e-01  -3.4344851658046455e-01  -3.4345564642626886e-01  -3.4346553920219108e-01  -3.4347905251973671e-01  -3.4349735106429696e-01  -3.4352198441450382e-01  -3.4355498613002816e-01  -3.4359899759121976e-01  -3.4365742050343456e-01  -3.4373460230807257e-01  -3.4383605892079766e-01  -3.4396873918083248e-01  -3.4414133506448574e-01  -3.4436464099712910e-01  -3.4465196438309104e-01  -3.4501958764506652e-01  -3.4548727950431346e-01  -3.4607884983209741e-01  -3.4682273808620379e-01  -3.4775262010283381e-01  -3.4890801194094190e-01  -3.5033484283389921e-01  -3.5208596257980723e-01  -3.5422154266981970e-01  -3.5680932620505507e-01  -3.5992468057270804e-01  -3.6365041049852354e-01  -3.6807629894134386e-01  -3.7329836034255237e-01  -3.7941781501150745e-01  -3.8653982349224492e-01  -3.9477205248447111e-01  -4.0422317461642399e-01  -4.1500142763502706e-01  -4.2721336942038635e-01  -4.4096296063583718e-01  -4.5635108688572817e-01  -4.7347560047330323e-01  -3.4366172333994183e-01  -3.4366365475968452e-01  -3.4366707886685588e-01  -3.4367222812214598e-01  -3.4367950878885639e-01  -3.4368953064873292e-01  -3.4370315056712369e-01  -3.4372153182117937e-01  -3.4374622164688079e-01  -3.4377924998579956e-01  -3.4382325290281113e-01  -3.4388162457464672e-01  -3.4395870207861162e-01  -3.4405998739111621e-01  -3.4419241097324565e-01  -3.4436464099712910e-01  -3.4458744155919296e-01  -3.4487408202781833e-01  -3.4524079786694339e-01  -3.4570730074488520e-01  -3.4629733237091753e-01  -3.4703925222434873e-01  -3.4796664413817369e-01  -3.4911892066395994e-01  -3.5054189752960435e-01  -3.5228830378379455e-01  -3.5441818715995554e-01  -3.5699916986492036e-01  -3.6010650877573064e-01  -3.6382291746220441e-01  -3.6823811702351394e-01  -3.7344809945407859e-01  -3.7955411120667532e-01  -3.8666139444165332e-01  -3.9487775608713938e-01  -4.0431206568793127e-01  -4.1507280666743718e-01  -4.2726681706971498e-01  -4.4099835198999643e-01  -4.5636858071664449e-01  -4.7347560047330323e-01  -3.4394923522992638e-01  -3.4395141848201111e-01  -3.4395506679420640e-01  -3.4396041280412615e-01  -3.4396786269091045e-01  -3.4397802573638026e-01  -3.4399175768462897e-01  -3.4401021980460855e-01  -3.4403495610042134e-01  -3.4406799163731638e-01  -3.4411195544013501e-01  -3.4417023184870421e-01  -3.4424714454438582e-01  -3.4434817764441672e-01  -3.4448023823301221e-01  -3.4465196438309104e-01  -3.4487408202781833e-01  -3.4515981286135849e-01  -3.4552533366775923e-01  -3.4599028497751616e-01  -3.4657832362486901e-01  -3.4731770954746372e-01  -3.4824191201683563e-01  -3.4939021449983071e-01  -3.5080829077198100e-01  -3.5254871819839340e-01  -3.5467138800957437e-01  -3.5724376798758106e-01  -3.6034097159722994e-01  -3.6404559078752963e-01  -3.6844725893324387e-01  -3.7364192672999369e-01  -3.7973085741931273e-01  -3.8681937722416598e-01  -3.9501544936215566e-01  -4.0442817096188427e-01  -4.1516631626045608e-01  -4.2733706158466384e-01  -4.4104502462115380e-01  -4.5639173219857748e-01  -4.7347560047330323e-01  -3.4431757199918051e-01  -3.4432004663661703e-01  -3.4432395134428967e-01  -3.4432951899562619e-01  -3.4433715560430556e-01  -3.4434746969585700e-01  -3.4436131541454734e-01  -3.4437985125891601e-01  -3.4440461687735940e-01  -3.4443763087632523e-01  -3.4448151308058411e-01  -3.4453963511169644e-01  -3.4461630348074834e-01  -3.4471697957624281e-01  -3.4484854090582601e-01  -3.4501958764506657e-01  -3.4524079786694339e-01  -3.4552533366775923e-01  -3.4588929865457690e-01  -3.4635224479861648e-01  -3.4693772338024192e-01  -3.4767387057522381e-01  -3.4859401313880078e-01  -3.4973727371411933e-01  -3.5114914875933356e-01  -3.5288202540302510e-01  -3.5499559742559378e-01  -3.5755713606199602e-01  -3.6064156976275979e-01  -3.6433132996065859e-01  -3.6871592875331188e-01  -3.7389125029665088e-01  -3.7995856078853418e-01  -3.8702327101793260e-01  -3.9519351771784716e-01  -4.0457866098804479e-01  -4.1528781953524524e-01  -4.2742857837401760e-01  -4.4110600163908903e-01  -4.5642206595566748e-01  -4.7347560047330323e-01  -3.4478670872549888e-01  -3.4478951650089956e-01  -3.4479371053535013e-01  -3.4479952402309044e-01  -3.4480736270946644e-01  -3.4481783403375149e-01  -3.4483178992833041e-01  -3.4485038515408489e-01  -3.4487515358749504e-01  -3.4490810539360783e-01  -3.4495184850369548e-01  -3.4500973824168141e-01  -3.4508605927355424e-01  -3.4518624424147254e-01  -3.4531713342833470e-01  -3.4548727950431352e-01  -3.4570730074488520e-01  -3.4599