<?xml version="1.0"?>
<VTKFile type="UnstructuredGrid"  version="0.1"  >
<UnstructuredGrid>
<Piece  NumberOfPoints="1681" NumberOfCells="3200">
<Points>
<DataArray  type="Float64"  NumberOfComponents="3"  format="ascii">0 0 0  0.5 0 0  1 0 0  1.5 0 0  2 0 0  2.5 0 0  3 0 0  3.5 0 0  4 0 0  4.5 0 0  5 0 0  5.5 0 0  6 0 0  6.5 0 0  7 0 0  7.5 0 0  8 0 0  8.5 0 0  9 0 0  9.5 0 0  10 0 0  10.5 0 0  11 0 0  11.5 0 0  12 0 0  12.5 0 0  13 0 0  13.5 0 0  14 0 0  14.5 0 0  15 0 0  15.5 0 0  16 0 0  16.5 0 0  17 0 0  17.5 0 0  18 0 0  18.5 0 0  19 0 0  19.5 0 0  20 0 0  0 0.5 0  0.5 0.5 0  1 0.5 0  1.5 0.5 0  2 0.5 0  2.5 0.5 0  3 0.5 0  3.5 0.5 0  4 0.5 0  4.5 0.5 0  5 0.5 0  5.5 0.5 0  6 0.5 0  6.5 0.5 0  7 0.5 0  7.5 0.5 0  8 0.5 0  8.5 0.5 0  9 0.5 0  9.5 0.5 0  10 0.5 0  10.5 0.5 0  11 0.5 0  11.5 0.5 0  12 0.5 0  12.5 0.5 0  13 0.5 0  13.5 0.5 0  14 0.5 0  14.5 0.5 0  15 0.5 0  15.5 0.5 0  16 0.5 0  16.5 0.5 0  17 0.5 0  17.5 0.5 0  18 0.5 0  18.5 0.5 0  19 0.5 0  19.5 0.5 0  20 0.5 0  0 1 0  0.5 1 0  1 1 0  1.5 1 0  2 1 0  2.5 1 0  3 1 0  3.5 1 0  4 1 0  4.5 1 0  5 1 0  5.5 1 0  6 1 0  6.5 1 0  7 1 0  7.5 1 0  8 1 0  8.5 1 0  9 1 0  9.5 1 0  10 1 0  10.5 1 0  11 1 0  11.5 1 0  12 1 0  12.5 1 0  13 1 0  13.5 1 0  14 1 0  14.5 1 0  15 1 0  15.5 1 0  16 1 0  16.5 1 0  17 1 0  17.5 1 0  18 1 0  18.5 1 0  19 1 0  19.5 1 0  20 1 0  0 1.5 0  0.5 1.5 0  1 1.5 0  1.5 1.5 0  2 1.5 0  2.5 1.5 0  3 1.5 0  3.5 1.5 0  4 1.5 0  4.5 1.5 0  5 1.5 0  5.5 1.5 0  6 1.5 0  6.5 1.5 0  7 1.5 0  7.5 1.5 0  8 1.5 0  8.5 1.5 0  9 1.5 0  9.5 1.5 0  10 1.5 0  10.5 1.5 0  11 1.5 0  11.5 1.5 0  12 1.5 0  12.5 1.5 0  13 1.5 0  13.5 1.5 0  14 1.5 0  14.5 1.5 0  15 1.5 0  15.5 1.5 0  16 1.5 0  16.5 1.5 0  17 1.5 0  17.5 1.5 0  18 1.5 0  18.5 1.5 0  19 1.5 0  19.5 1.5 0  20 1.5 0  0 2 0  0.5 2 0  1 2 0  1.5 2 0  2 2 0  2.5 2 0  3 2 0  3.5 2 0  4 2 0  4.5 2 0  5 2 0  5.5 2 0  6 2 0  6.5 2 0  7 2 0  7.5 2 0  8 2 0  8.5 2 0  9 2 0  9.5 2 0  10 2 0  10.5 2 0  11 2 0  11.5 2 0  12 2 0  12.5 2 0  13 2 0  13.5 2 0  14 2 0  14.5 2 0  15 2 0  15.5 2 0  16 2 0  16.5 2 0  17 2 0  17.5 2 0  18 2 0  18.5 2 0  19 2 0  19.5 2 0  20 2 0  0 2.5 0  0.5 2.5 0  1 2.5 0  1.5 2.5 0  2 2.5 0  2.5 2.5 0  3 2.5 0  3.5 2.5 0  4 2.5 0  4.5 2.5 0  5 2.5 0  5.5 2.5 0  6 2.5 0  6.5 2.5 0  7 2.5 0  7.5 2.5 0  8 2.5 0  8.5 2.5 0  9 2.5 0  9.5 2.5 0  10 2.5 0  10.5 2.5 0  11 2.5 0  11.5 2.5 0  12 2.5 0  12.5 2.5 0  13 2.5 0  13.5 2.5 0  14 2.5 0  14.5 2.5 0  15 2.5 0  15.5 2.5 0  16 2.5 0  16.5 2.5 0  17 2.5 0  17.5 2.5 0  18 2.5 0  18.5 2.5 0  19 2.5 0  19.5 2.5 0  20 2.5 0  0 3 0  0.5 3 0  1 3 0  1.5 3 0  2 3 0  2.5 3 0  3 3 0  3.5 3 0  4 3 0  4.5 3 0  5 3 0  5.5 3 0  6 3 0  6.5 3 0  7 3 0  7.5 3 0  8 3 0  8.5 3 0  9 3 0  9.5 3 0  10 3 0  10.5 3 0  11 3 0  11.5 3 0  12 3 0  12.5 3 0  13 3 0  13.5 3 0  14 3 0  14.5 3 0  15 3 0  15.5 3 0  16 3 0  16.5 3 0  17 3 0  17.5 3 0  18 3 0  18.5 3 0  19 3 0  19.5 3 0  20 3 0  0 3.5 0  0.5 3.5 0  1 3.5 0  1.5 3.5 0  2 3.5 0  2.5 3.5 0  3 3.5 0  3.5 3.5 0  4 3.5 0  4.5 3.5 0  5 3.5 0  5.5 3.5 0  6 3.5 0  6.5 3.5 0  7 3.5 0  7.5 3.5 0  8 3.5 0  8.5 3.5 0  9 3.5 0  9.5 3.5 0  10 3.5 0  10.5 3.5 0  11 3.5 0  11.5 3.5 0  12 3.5 0  12.5 3.5 0  13 3.5 0  13.5 3.5 0  14 3.5 0  14.5 3.5 0  15 3.5 0  15.5 3.5 0  16 3.5 0  16.5 3.5 0  17 3.5 0  17.5 3.5 0  18 3.5 0  18.5 3.5 0  19 3.5 0  19.5 3.5 0  20 3.5 0  0 4 0  0.5 4 0  1 4 0  1.5 4 0  2 4 0  2.5 4 0  3 4 0  3.5 4 0  4 4 0  4.5 4 0  5 4 0  5.5 4 0  6 4 0  6.5 4 0  7 4 0  7.5 4 0  8 4 0  8.5 4 0  9 4 0  9.5 4 0  10 4 0  10.5 4 0  11 4 0  11.5 4 0  12 4 0  12.5 4 0  13 4 0  13.5 4 0  14 4 0  14.5 4 0  15 4 0  15.5 4 0  16 4 0  16.5 4 0  17 4 0  17.5 4 0  18 4 0  18.5 4 0  19 4 0  19.5 4 0  20 4 0  0 4.5 0  0.5 4.5 0  1 4.5 0  1.5 4.5 0  2 4.5 0  2.5 4.5 0  3 4.5 0  3.5 4.5 0  4 4.5 0  4.5 4.5 0  5 4.5 0  5.5 4.5 0  6 4.5 0  6.5 4.5 0  7 4.5 0  7.5 4.5 0  8 4.5 0  8.5 4.5 0  9 4.5 0  9.5 4.5 0  10 4.5 0  10.5 4.5 0  11 4.5 0  11.5 4.5 0  12 4.5 0  12.5 4.5 0  13 4.5 0  13.5 4.5 0  14 4.5 0  14.5 4.5 0  15 4.5 0  15.5 4.5 0  16 4.5 0  16.5 4.5 0  17 4.5 0  17.5 4.5 0  18 4.5 0  18.5 4.5 0  19 4.5 0  19.5 4.5 0  20 4.5 0  0 5 0  0.5 5 0  1 5 0  1.5 5 0  2 5 0  2.5 5 0  3 5 0  3.5 5 0  4 5 0  4.5 5 0  5 5 0  5.5 5 0  6 5 0  6.5 5 0  7 5 0  7.5 5 0  8 5 0  8.5 5 0  9 5 0  9.5 5 0  10 5 0  10.5 5 0  11 5 0  11.5 5 0  12 5 0  12.5 5 0  13 5 0  13.5 5 0  14 5 0  14.5 5 0  15 5 0  15.5 5 0  16 5 0  16.5 5 0  17 5 0  17.5 5 0  18 5 0  18.5 5 0  19 5 0  19.5 5 0  20 5 0  0 5.5 0  0.5 5.5 0  1 5.5 0  1.5 5.5 0  2 5.5 0  2.5 5.5 0  3 5.5 0  3.5 5.5 0  4 5.5 0  4.5 5.5 0  5 5.5 0  5.5 5.5 0  6 5.5 0  6.5 5.5 0  7 5.5 0  7.5 5.5 0  8 5.5 0  8.5 5.5 0  9 5.5 0  9.5 5.5 0  10 5.5 0  10.5 5.5 0  11 5.5 0  11.5 5.5 0  12 5.5 0  12.5 5.5 0  13 5.5 0  13.5 5.5 0  14 5.5 0  14.5 5.5 0  15 5.5 0  15.5 5.5 0  16 5.5 0  16.5 5.5 0  17 5.5 0  17.5 5.5 0  18 5.5 0  18.5 5.5 0  19 5.5 0  19.5 5.5 0  20 5.5 0  0 6 0  0.5 6 0  1 6 0  1.5 6 0  2 6 0  2.5 6 0  3 6 0  3.5 6 0  4 6 0  4.5 6 0  5 6 0  5.5 6 0  6 6 0  6.5 6 0  7 6 0  7.5 6 0  8 6 0  8.5 6 0  9 6 0  9.5 6 0  10 6 0  10.5 6 0  11 6 0  11.5 6 0  12 6 0  12.5 6 0  13 6 0  13.5 6 0  14 6 0  14.5 6 0  15 6 0  15.5 6 0  16 6 0  16.5 6 0  17 6 0  17.5 6 0  18 6 0  18.5 6 0  19 6 0  19.5 6 0  20 6 0  0 6.5 0  0.5 6.5 0  1 6.5 0  1.5 6.5 0  2 6.5 0  2.5 6.5 0  3 6.5 0  3.5 6.5 0  4 6.5 0  4.5 6.5 0  5 6.5 0  5.5 6.5 0  6 6.5 0  6.5 6.5 0  7 6.5 0  7.5 6.5 0  8 6.5 0  8.5 6.5 0  9 6.5 0  9.5 6.5 0  10 6.5 0  10.5 6.5 0  11 6.5 0  11.5 6.5 0  12 6.5 0  12.5 6.5 0  13 6.5 0  13.5 6.5 0  14 6.5 0  14.5 6.5 0  15 6.5 0  15.5 6.5 0  16 6.5 0  16.5 6.5 0  17 6.5 0  17.5 6.5 0  18 6.5 0  18.5 6.5 0  19 6.5 0  19.5 6.5 0  20 6.5 0  0 7 0  0.5 7 0  1 7 0  1.5 7 0  2 7 0  2.5 7 0  3 7 0  3.5 7 0  4 7 0  4.5 7 0  5 7 0  5.5 7 0  6 7 0  6.5 7 0  7 7 0  7.5 7 0  8 7 0  8.5 7 0  9 7 0  9.5 7 0  10 7 0  10.5 7 0  11 7 0  11.5 7 0  12 7 0  12.5 7 0  13 7 0  13.5 7 0  14 7 0  14.5 7 0  15 7 0  15.5 7 0  16 7 0  16.5 7 0  17 7 0  17.5 7 0  18 7 0  18.5 7 0  19 7 0  19.5 7 0  20 7 0  0 7.5 0  0.5 7.5 0  1 7.5 0  1.5 7.5 0  2 7.5 0  2.5 7.5 0  3 7.5 0  3.5 7.5 0  4 7.5 0  4.5 7.5 0  5 7.5 0  5.5 7.5 0  6 7.5 0  6.5 7.5 0  7 7.5 0  7.5 7.5 0  8 7.5 0  8.5 7.5 0  9 7.5 0  9.5 7.5 0  10 7.5 0  10.5 7.5 0  11 7.5 0  11.5 7.5 0  12 7.5 0  12.5 7.5 0  13 7.5 0  13.5 7.5 0  14 7.5 0  14.5 7.5 0  15 7.5 0  15.5 7.5 0  16 7.5 0  16.5 7.5 0  17 7.5 0  17.5 7.5 0  18 7.5 0  18.5 7.5 0  19 7.5 0  19.5 7.5 0  20 7.5 0  0 8 0  0.5 8 0  1 8 0  1.5 8 0  2 8 0  2.5 8 0  3 8 0  3.5 8 0  4 8 0  4.5 8 0  5 8 0  5.5 8 0  6 8 0  6.5 8 0  7 8 0  7.5 8 0  8 8 0  8.5 8 0  9 8 0  9.5 8 0  10 8 0  10.5 8 0  11 8 0  11.5 8 0  12 8 0  12.5 8 0  13 8 0  13.5 8 0  14 8 0  14.5 8 0  15 8 0  15.5 8 0  16 8 0  16.5 8 0  17 8 0  17.5 8 0  18 8 0  18.5 8 0  19 8 0  19.5 8 0  20 8 0  0 8.5 0  0.5 8.5 0  1 8.5 0  1.5 8.5 0  2 8.5 0  2.5 8.5 0  3 8.5 0  3.5 8.5 0  4 8.5 0  4.5 8.5 0  5 8.5 0  5.5 8.5 0  6 8.5 0  6.5 8.5 0  7 8.5 0  7.5 8.5 0  8 8.5 0  8.5 8.5 0  9 8.5 0  9.5 8.5 0  10 8.5 0  10.5 8.5 0  11 8.5 0  11.5 8.5 0  12 8.5 0  12.5 8.5 0  13 8.5 0  13.5 8.5 0  14 8.5 0  14.5 8.5 0  15 8.5 0  15.5 8.5 0  16 8.5 0  16.5 8.5 0  17 8.5 0  17.5 8.5 0  18 8.5 0  18.5 8.5 0  19 8.5 0  19.5 8.5 0  20 8.5 0  0 9 0  0.5 9 0  1 9 0  1.5 9 0  2 9 0  2.5 9 0  3 9 0  3.5 9 0  4 9 0  4.5 9 0  5 9 0  5.5 9 0  6 9 0  6.5 9 0  7 9 0  7.5 9 0  8 9 0  8.5 9 0  9 9 0  9.5 9 0  10 9 0  10.5 9 0  11 9 0  11.5 9 0  12 9 0  12.5 9 0  13 9 0  13.5 9 0  14 9 0  14.5 9 0  15 9 0  15.5 9 0  16 9 0  16.5 9 0  17 9 0  17.5 9 0  18 9 0  18.5 9 0  19 9 0  19.5 9 0  20 9 0  0 9.5 0  0.5 9.5 0  1 9.5 0  1.5 9.5 0  2 9.5 0  2.5 9.5 0  3 9.5 0  3.5 9.5 0  4 9.5 0  4.5 9.5 0  5 9.5 0  5.5 9.5 0  6 9.5 0  6.5 9.5 0  7 9.5 0  7.5 9.5 0  8 9.5 0  8.5 9.5 0  9 9.5 0  9.5 9.5 0  10 9.5 0  10.5 9.5 0  11 9.5 0  11.5 9.5 0  12 9.5 0  12.5 9.5 0  13 9.5 0  13.5 9.5 0  14 9.5 0  14.5 9.5 0  15 9.5 0  15.5 9.5 0  16 9.5 0  16.5 9.5 0  17 9.5 0  17.5 9.5 0  18 9.5 0  18.5 9.5 0  19 9.5 0  19.5 9.5 0  20 9.5 0  0 10 0  0.5 10 0  1 10 0  1.5 10 0  2 10 0  2.5 10 0  3 10 0  3.5 10 0  4 10 0  4.5 10 0  5 10 0  5.5 10 0  6 10 0  6.5 10 0  7 10 0  7.5 10 0  8 10 0  8.5 10 0  9 10 0  9.5 10 0  10 10 0  10.5 10 0  11 10 0  11.5 10 0  12 10 0  12.5 10 0  13 10 0  13.5 10 0  14 10 0  14.5 10 0  15 10 0  15.5 10 0  16 10 0  16.5 10 0  17 10 0  17.5 10 0  18 10 0  18.5 10 0  19 10 0  19.5 10 0  20 10 0  0 10.5 0  0.5 10.5 0  1 10.5 0  1.5 10.5 0  2 10.5 0  2.5 10.5 0  3 10.5 0  3.5 10.5 0  4 10.5 0  4.5 10.5 0  5 10.5 0  5.5 10.5 0  6 10.5 0  6.5 10.5 0  7 10.5 0  7.5 10.5 0  8 10.5 0  8.5 10.5 0  9 10.5 0  9.5 10.5 0  10 10.5 0  10.5 10.5 0  11 10.5 0  11.5 10.5 0  12 10.5 0  12.5 10.5 0  13 10.5 0  13.5 10.5 0  14 10.5 0  14.5 10.5 0  15 10.5 0  15.5 10.5 0  16 10.5 0  16.5 10.5 0  17 10.5 0  17.5 10.5 0  18 10.5 0  18.5 10.5 0  19 10.5 0  19.5 10.5 0  20 10.5 0  0 11 0  0.5 11 0  1 11 0  1.5 11 0  2 11 0  2.5 11 0  3 11 0  3.5 11 0  4 11 0  4.5 11 0  5 11 0  5.5 11 0  6 11 0  6.5 11 0  7 11 0  7.5 11 0  8 11 0  8.5 11 0  9 11 0  9.5 11 0  10 11 0  10.5 11 0  11 11 0  11.5 11 0  12 11 0  12.5 11 0  13 11 0  13.5 11 0  14 11 0  14.5 11 0  15 11 0  15.5 11 0  16 11 0  16.5 11 0  17 11 0  17.5 11 0  18 11 0  18.5 11 0  19 11 0  19.5 11 0  20 11 0  0 11.5 0  0.5 11.5 0  1 11.5 0  1.5 11.5 0  2 11.5 0  2.5 11.5 0  3 11.5 0  3.5 11.5 0  4 11.5 0  4.5 11.5 0  5 11.5 0  5.5 11.5 0  6 11.5 0  6.5 11.5 0  7 11.5 0  7.5 11.5 0  8 11.5 0  8.5 11.5 0  9 11.5 0  9.5 11.5 0  10 11.5 0  10.5 11.5 0  11 11.5 0  11.5 11.5 0  12 11.5 0  12.5 11.5 0  13 11.5 0  13.5 11.5 0  14 11.5 0  14.5 11.5 0  15 11.5 0  15.5 11.5 0  16 11.5 0  16.5 11.5 0  17 11.5 0  17.5 11.5 0  18 11.5 0  18.5 11.5 0  19 11.5 0  19.5 11.5 0  20 11.5 0  0 12 0  0.5 12 0  1 12 0  1.5 12 0  2 12 0  2.5 12 0  3 12 0  3.5 12 0  4 12 0  4.5 12 0  5 12 0  5.5 12 0  6 12 0  6.5 12 0  7 12 0  7.5 12 0  8 12 0  8.5 12 0  9 12 0  9.5 12 0  10 12 0  10.5 12 0  11 12 0  11.5 12 0  12 12 0  12.5 12 0  13 12 0  13.5 12 0  14 12 0  14.5 12 0  
[...]
<PointData  Scalars="f_5623-1"> 
<DataArray  type="Float64"  Name="f_5623-1"  format="ascii">-3.4273950834607214e-01  -3.4274020999134142e-01  -3.4274192829997868e-01  -3.4274490799126250e-01  -3.4274948139618516e-01  -3.4275612916946879e-01  -3.4276552727157727e-01  -3.4277860203131438e-01  -3.4279660036980786e-01  -3.4282117946915824e-01  -3.4285451992972343e-01  -3.4289946677864008e-01  -3.4295970308732504e-01  -3.4303996126659497e-01  -3.4314627723626612e-01  -3.4328629251546683e-01  -3.4346960874127508e-01  -3.4370819807144343e-01  -3.4401687122269992e-01  -3.4441380239312658e-01  -3.4492110687514221e-01  -3.4556546267207461e-01  -3.4637876183450572e-01  -3.4739877058891705e-01  -3.4866976986738130e-01  -3.5024314003421558e-01  -3.5217784623439252e-01  -3.5454077502429276e-01  -3.5740687032630652e-01  -3.6085901908110118e-01  -3.6498764607261946e-01  -3.6988999466667238e-01  -3.7566909603284077e-01  -3.8243246262657865e-01  -3.9029057917493187e-01  -3.9935530131205038e-01  -4.0973830308446124e-01  -4.2154973722143863e-01  -4.3489729423067341e-01  -4.4988590881545304e-01  -4.6661860408701356e-01  -3.4274020999134147e-01  -3.4274079506704835e-01  -3.4274249394890610e-01  -3.4274547802725674e-01  -3.4275006407639969e-01  -3.4275672977313681e-01  -3.4276615118559611e-01  -3.4277925572823748e-01  -3.4279729189547836e-01  -3.4282191882072288e-01  -3.4285531941911329e-01  -3.4290034140197373e-01  -3.4296067089603693e-01  -3.4304104372383881e-01  -3.4314749953275209e-01  -3.4328768380977764e-01  -3.4347120228028155e-01  -3.4371003113689402e-01  -3.4401898484107662e-01  -3.4441624073864263e-01  -3.4492391629210883e-01  -3.4556869024532866e-01  -3.4638245344850960e-01  -3.4740296844158758e-01  -3.4867450944806400e-01  -3.5024844664030363e-01  -3.5218373118950003e-01  -3.5454723186963616e-01  -3.5741387137547498e-01  -3.6086651283576848e-01  -3.6499555606006606e-01  -3.6989822023506175e-01  -3.7567751547321687e-01  -3.8244093861169576e-01  -3.9029896577966322e-01  -3.9936345039668442e-01  -4.0974606407285580e-01  -4.2155693257403171e-01  -4.3490361143182904e-01  -4.4989049652440999e-01  -4.6661860408701356e-01  -3.4274192829997868e-01  -3.4274249394890610e-01  -3.4274418597161838e-01  -3.4274717477130723e-01  -3.4275177285372171e-01  -3.4275845609686822e-01  -3.4276790043454908e-01  -3.4278103404268967e-01  -3.4279910671604047e-01  -3.4282377928670338e-01  -3.4285723671495361e-01  -3.4290232908075885e-01  -3.4296274518118380e-01  -3.4304322377469137e-01  -3.4314980764907654e-01  -3.4329014554112941e-01  -3.4347384639807443e-01  -3.4371288941990896e-01  -3.4402209161987740e-01  -3.4441963214218069e-01  -3.4492762914243646e-01  -3.4557276055596381e-01  -3.4638691450109632e-01  -3.4740784844660150e-01  -3.4867982884041926e-01  -3.5025421512035521e-01  -3.5218994469173931e-01  -3.5455386971830039e-01  -3.5742089395462301e-01  -3.6087386013910761e-01  -3.6500314746176060e-01  -3.6990595569616319e-01  -3.7568527811628050e-01  -3.8244859808014847e-01  -3.9030638090136988e-01  -3.9937046807118659e-01  -4.0975250832243049e-01  -4.2156257232136934e-01  -4.3490808851062385e-01  -4.4989320240686514e-01  -4.6661860408701356e-01  -3.4274490799126256e-01  -3.4274547802725680e-01  -3.4274717477130723e-01  -3.4275017279456554e-01  -3.4275478478582388e-01  -3.4276148644475840e-01  -3.4277095398047569e-01  -3.4278411633333838e-01  -3.4280222446685615e-01  -3.4282694071968450e-01  -3.4286045185496544e-01  -3.4290561001997238e-01  -3.4296610630658880e-01  -3.4304668194214744e-01  -3.4315338227807846e-01  -3.4329385859662043e-01  -3.4347772221916001e-01  -3.4371695435069827e-01  -3.4402637339586029e-01  -3.4442415898786205e-01  -3.4493242854402090e-01  -3.4557785768848520e-01  -3.4639233031422062e-01  -3.4741359744860045e-01  -3.4868591666561621e-01  -3.5026063601976060e-01  -3.5219667914458674e-01  -3.5456088241436945e-01  -3.5742813242884802e-01  -3.6088125433052398e-01  -3.6501061039272015e-01  -3.6991338529593221e-01  -3.7569255991529338e-01  -3.8245560804753298e-01  -3.9031298706493739e-01  -3.9937652876140217e-01  -4.0975786412950294e-01  -4.2156702908573529e-01  -4.3491139296609499e-01  -4.4989502811445009e-01  -4.6661860408701356e-01  -3.4274948139618522e-01  -3.4275006407639969e-01  -3.4275177285372177e-01  -3.4275478478582388e-01  -3.4275941355275447e-01  -3.4276613537324535e-01  -3.4277562704073150e-01  -3.4278881832010027e-01  -3.4280696126945642e-01  -3.4283171957850384e-01  -3.4286528159213486e-01  -3.4291050123586209e-01  -3.4297107152857276e-01  -3.4305173570501751e-01  -3.4315854110840921e-01  -3.4329914086717839e-01  -3.4348314783479666e-01  -3.4372254422495097e-01  -3.4403214867887644e-01  -3.4443014001266425e-01  -3.4493863347106174e-01  -3.4558430084935260e-01  -3.4639902028527708e-01  -3.4742053492443059e-01  -3.4869309224903944e-01  -3.5026802809615154e-01  -3.5220425205648526e-01  -3.5456858518719164e-01  -3.5743589830529904e-01  -3.6088900133231311e-01  -3.6501824302487973e-01  -3.6992079732648181e-01  -3.7569963789665356e-01  -3.8246223491312553e-01  -3.9031904479513901e-01  -3.9938189891756204e-01  -4.0976242533971668e-01  -4.2157065200828919e-01  -4.3491393695403896e-01  -4.4989635077081019e-01  -4.6661860408701356e-01  -3.4275612916946885e-01  -3.4275672977313687e-01  -3.4275845609686822e-01  -3.4276148644475840e-01  -3.4276613537324535e-01  -3.4277287978092630e-01  -3.4278239716177045e-01  -3.4279561812069487e-01  -3.4281379573820303e-01  -3.4283859491068430e-01  -3.4287220535320129e-01  -3.4291748248631021e-01  -3.4297812089044505e-01  -3.4305886534553393e-01  -3.4316576461084725e-01  -3.4330647295442690e-01  -3.4349060390809233e-01  -3.4373013968035881e-01  -3.4403989796845491e-01  -3.4443805542744615e-01  -3.4494672364045342e-01  -3.4559256897749852e-01  -3.4640746217987894e-01  -3.4742913691679544e-01  -3.4870182915325953e-01  -3.5027686140526848e-01  -3.5221312861610748e-01  -3.5457743661082219e-01  -3.5744464138629622e-01  -3.6089753964968319e-01  -3.6502646982133419e-01  -3.6992859955308988e-01  -3.7570690108123711e-01  -3.8246884825899896e-01  -3.9032490573416806e-01  -3.9938691636613410e-01  -4.0976652134546721e-01  -4.2157376257609247e-01  -4.3491601475277303e-01  -4.4989737490261017e-01  -4.6661860408701356e-01  -3.4276552727157727e-01  -3.4276615118559611e-01  -3.4276790043454908e-01  -3.4277095398047569e-01  -3.4277562704073150e-01  -3.4278239716177045e-01  -3.4279194253690870e-01  -3.4280519457592257e-01  -3.4282340729314531e-01  -3.4284824664401553e-01  -3.4288190350173697e-01  -3.4292723449666168e-01  -3.4298793539966393e-01  -3.4306875206311105e-01  -3.4317573407000207e-01  -3.4331653609708229e-01  -3.4350077146653424e-01  -3.4374042132070948e-01  -3.4405030116825397e-01  -3.4444858407342660e-01  -3.4495737635447887e-01  -3.4560333720962377e-01  -3.4641832814777751e-01  -3.4744007151907791e-01  -3.4871279003712208e-01  -3.5028779142034111e-01  -3.5222395492704817e-01  -3.5458807075875726e-01  -3.5745498056924063e-01  -3.6090746942056456e-01  -3.6503586826980139e-01  -3.6993734284518520e-01  -3.7571486999855769e-01  -3.8247593515058748e-01  -3.9033102114365181e-01  -3.9939199462210068e-01  -4.0977052470703895e-01  -4.2157668416504795e-01  -4.3491788140784715e-01  -4.4989825195230404e-01  -4.6661860408701356e-01  -3.4277860203131438e-01  -3.4277925572823748e-01  -3.4278103404268967e-01  -3.4278411633333838e-01  -3.4278881832010027e-01  -3.4279561812069487e-01  -3.4280519457592251e-01  -3.4281847983284391e-01  -3.4283672873399251e-01  -3.4286160813671557e-01  -3.4289530985223798e-01  -3.4294069142476302e-01  -3.4300144942842276e-01  -3.4308233029149687e-01  -3.4318938379444658e-01  -3.4333026424484464e-01  -3.4351458380368555e-01  -3.4375432140154499e-01  -3.4406428900274072e-01  -3.4446265450659108e-01  -3.4497151717795077e-01  -3.4561752706184473e-01  -3.4643253430557808e-01  -3.4745424773768413e-01  -3.4872687465406910e-01  -3.5030170599415889e-01  -3.5223760372349600e-01  -3.5460134141229188e-01  -3.5746774621999672e-01  -3.6091959254313283e-01  -3.6504720626077453e-01  -3.6994775522463880e-01  -3.7572422682698720e-01  -3.8248412601007814e-01  -3.9033796384369407e-01  -3.9939764273962908e-01  -4.0977487321587708e-01  -4.2157977276046921e-01  -4.3491979560162347e-01  -4.4989912236463164e-01  -4.6661860408701356e-01  -3.4279660036980791e-01  -3.4279729189547836e-01  -3.4279910671604047e-01  -3.4280222446685615e-01  -3.4280696126945642e-01  -3.4281379573820303e-01  -3.4282340729314531e-01  -3.4283672873399257e-01  -3.4285501561184772e-01  -3.4287993551592222e-01  -3.4291368096018793e-01  -3.4295911008603591e-01  -3.4301991985425406e-01  -3.4310085673117380e-01  -3.4320797001161851e-01  -3.4334891277955942e-01  -3.4353329498190655e-01  -3.4377309205961937e-01  -3.4408311090660926e-01  -3.4448151246632486e-01  -3.4499038688910377e-01  -3.4563637274711562e-01  -3.4645130628317572e-01  -3.4747288010450089e-01  -3.4874528333755017e-01  -3.5031978748855314e-01  -3.5225523487221944e-01  -3.5461838061329592e-01  -3.5748403639825027e-01  -3.6093496613766829e-01  -3.6506149230317703e-01  -3.6996078834334162e-01  -3.7573585771720924e-01  -3.8249423260390519e-01  -3.9034646215834745e-01  -3.9940449624088609e-01  -4.0978009956016309e-01  -4.2158344698402117e-01  -4.3492204914844201e-01  -4.4990013762649939e-01  -4.6661860408701356e-01  -3.4282117946915830e-01  -3.4282191882072294e-01  -3.4282377928670338e-01  -3.4282694071968450e-01  -3.4283171957850384e-01  -3.4283859491068430e-01  -3.4284824664401559e-01  -3.4286160813671557e-01  -3.4287993551592227e-01  -3.4290489691565718e-01  -3.4293868529383065e-01  -3.4298415903911833e-01  -3.4304501503575680e-01  -3.4312599918611847e-01  -3.4323315952973021e-01  -3.4337414695782076e-01  -3.4355856800065715e-01  -3.4379839313914368e-01  -3.4410842242594730e-01  -3.4450680775041176e-01  -3.4501562770612515e-01  -3.4566150660626427e-01  -3.4647626368358980e-01  -3.4749757195671638e-01  -3.4876959885400621e-01  -3.5034359291047962e-01  -3.5227837345333235e-01  -3.5464067429892693e-01  -3.5750528960224937e-01  -3.6095497190989512e-01  -3.6508004098489355e-01  -3.6997767852616092e-01  -3.7575090897235225e-01  -3.8250729907408143e-01  -3.9035744576681330e-01  -3.9941335804291705e-01  -4.0978686770326894e-01  -4.2158821988263839e-01  -4.3492499278747221e-01  -4.4990147628720428e-01  -4.6661860408701356e-01  -3.4285451992972343e-01  -3.4285531941911329e-01  -3.4285723671495361e-01  -3.4286045185496539e-01  -3.4286528159213486e-01  -3.4287220535320134e-01  -3.4288190350173697e-01  -3.4289530985223798e-01  -3.4291368096018798e-01  -3.4293868529383065e-01  -3.4297251596158446e-01  -3.4301803120009217e-01  -3.4307892728507899e-01  -3.4315994885944129e-01  -3.4326714181307783e-01  -3.4340815371193267e-01  -3.4359258625607986e-01  -3.4383240322709940e-01  -3.4414239572727856e-01  -3.4454070407302440e-01  -3.4504939234242815e-01  -3.4569506717746024e-01  -3.4650952694716941e-01  -3.4753042083465924e-01  -3.4880189002616696e-01  -3.5037515540031416e-01  -3.5230900869649762e-01  -3.5467015820965836e-01  -3.5753337711493494e-01  -3.6098140435138010e-01  -3.6510455641021011e-01  -3.7000002482343081e-01  -3.7577085912948599e-01  -3.8252466754461367e-01  -3.9037210444366066e-01  -3.9942525003050500e-01  -4.0979601694898704e-01  -4.2159473483726539e-01  -4.3492906260947439e-01  -4.4990335862740871e-01  -4.6661860408701356e-01  -3.4289946677864008e-01  -3.4290034140197373e-01  -3.4290232908075885e-01  -3.4290561001997238e-01  -3.4291050123586209e-01  -3.4291748248631021e-01  -3.4292723449666174e-01  -3.4294069142476302e-01  -3.4295911008603591e-01  -3.4298415903911833e-01  -3.4301803120009217e-01  -3.4306358418391442e-01  -3.4312451302873898e-01  -3.4320556029158245e-01  -3.4331276864537630e-01  -3.4345378097331292e-01  -3.4363819244350241e-01  -3.4387795803440402e-01  -3.4418785733339363e-01  -3.4458601600301197e-01  -3.4509447996177950e-01  -3.4573983394344615e-01  -3.4655385062093946e-01  -3.4757414995163499e-01  -3.4884484102378149e-01  -3.5041711090010130e-01  -3.5234971751499317e-01  -3.5470933770691104e-01  -3.5757071845382910e-01  -3.6101658110817630e-01  -3.6513723672527632e-01  -3.7002988690406868e-01  -3.7579760943076312e-01  -3.8254806040643019e-01  -3.9039196143090737e-01  -3.9944147680688441e-01  -4.0980861531279833e-01  -4.2160380763152405e-01  -4.3493480961096614e-01  -4.4990606218049617e-01  -4.6661860408701356e-01  -3.4295970308732504e-01  -3.4296067089603693e-01  -3.4296274518118380e-01  -3.4296610630658880e-01  -3.4297107152857276e-01  -3.4297812089044505e-01  -3.4298793539966393e-01  -3.4300144942842276e-01  -3.4301991985425406e-01  -3.4304501503575680e-01  -3.4307892728507899e-01  -3.4312451302873903e-01  -3.4318546530525407e-01  -3.4326652358138288e-01  -3.4337372601207589e-01  -3.4351470913837551e-01  -3.4369905950998780e-01  -3.4393872071463222e-01  -3.4424845765908291e-01  -3.4464637753304900e-01  -3.4515450355636429e-01  -3.4579939324601672e-01  -3.4661278748140162e-01  -3.4763227013352577e-01  -3.4890191065735582e-01  -3.5047285426061187e-01  -3.5240381680155991e-01  -3.5476143554635625e-01  -3.5762042382420162e-01  -3.6106347923539184e-01  -3.6518090322585012e-01  -3.7006990601530371e-01  -3.7583359560172119e-01  -3.8257968186916874e-01  -3.9041896372024182e-01  -3.9946370366489092e-01  -4.0982602412353447e-01  -4.2161647657910795e-01  -4.3494293418366076e-01  -4.4990993942846674e-01  -4.6661860408701356e-01  -3.4303996126659497e-01  -3.4304104372383881e-01  -3.4304322377469137e-01  -3.4304668194214744e-01  -3.4305173570501751e-01  -3.4305886534553393e-01  -3.4306875206311105e-01  -3.4308233029149687e-01  -3.4310085673117380e-01  -3.4312599918611847e-01  -3.4315994885944129e-01  -3.4320556029158245e-01  -3.4326652358138288e-01  -3.4334757386430120e-01  -3.4345474316723928e-01  -3.4359565963228578e-01  -3.4377989860022734e-01  -3.4401938904905588e-01  -3.4432887725791950e-01  -3.4472644716928713e-01  -3.4523409361102236e-01  -3.4587834019840419e-01  -3.4669088830111816e-01  -3.4770927696841486e-01  -3.4897752635288209e-01  -3.5054672938764775e-01  -3.5247554898992867e-01  -3.5483057199085272e-01  -3.5768646781123531e-01  -3.6112590139194406e-01  -3.6523915788308492e-01  -3.7012345258834656e-01  -3.7588192422635058e-01  -3.8262234175893906e-01  -3.9045559191354828e-01  -3.9949405115730185e-01  -4.0984997597495293e-01  -4.2163406257290631e-01  -4.3495432706218290e-01  -4.4991543862150674e-01  -4.6661860408701356e-01  -3.4314627723626606e-01  -3.4314749953275203e-01  -3.4314980764907649e-01  -3.4315338227807846e-01  -3.4315854110840921e-01  -3.4316576461084725e-01  -3.4317573407000207e-01  -3.4318938379444652e-01  -3.4320797001161851e-01  -3.4323315952973021e-01  -3.4326714181307783e-01  -3.4331276864537630e-01  -3.4337372601207589e-01  -3.4345474316723928e-01  -3.4356184399788287e-01  -3.4370264567570202e-01  -3.4388670909150509e-01  -3.4412594458229046e-01  -3.4443507485030761e-01  -3.4483215459428190e-01  -3.4533914308466335e-01  -3.4598252159927612e-01  -3.4679394222838428e-01  -3.4781088809205180e-01  -3.4907731767830052e-01  -3.5064425822859763e-01  -3.5257030559494423e-01  -3.5492198186527479e-01  -3.5777389877567406e-01  -3.6120867627072567e-01  -3.6531657337844015e-01  -3.7019480434076379e-01  -3.7594653729517968e-01  -3.8267960483539715e-01  -3.9050499261218435e-01  -3.9953520888084376e-01  -4.0988266829049030e-01  -4.2165824093201565e-01  -4.3497011813701608e-01  -4.4992312851287047e-01  -4.6661860408701356e-01  -3.4328629251546677e-01  -3.4328768380977759e-01  -3.4329014554112941e-01  -3.4329385859662037e-01  -3.4329914086717839e-01  -3.4330647295442696e-01  -3.4331653609708229e-01  -3.4333026424484464e-01  -3.4334891277955942e-01  -3.4337414695782081e-01  -3.4340815371193267e-01  -3.4345378097331292e-01  -3.4351470913837551e-01  -3.4359565963228578e-01  -3.4370264567570202e-01  -3.4384327024136313e-01  -3.4402707570060231e-01  -3.4426594868617455e-01  -3.4457458210351166e-01  -3.4497099386477920e-01  -3.4547709865835691e-01  -3.4611932478178092e-01  -3.4692926269203733e-01  -3.4794432549269150e-01  -3.4920839426723627e-01  -3.5077241339435034e-01  -3.5269489345989363e-01  -3.5504227319504095e-01  -3.5788908848301337e-01  -3.6131789765282574e-01  -3.6541891986105085e-01  -3.7028935887659109e-01  -3.7603240867670401e-01  -3.8275596908968523e-01  -3.9057113647090180e-01  -3.9959057124699010e-01  -4.0992687486942114e-01  -4.2169112695451372e-01  -4.3499173450254175e-01  -4.4993372774122187e-01  -4.6661860408701356e-01  -3.4346960874127508e-01  -3.4347120228028155e-01  -3.4347384639807443e-01  -3.4347772221915995e-01  -3.4348314783479666e-01  -3.4349060390809233e-01  -3.4350077146653424e-01  -3.4351458380368560e-01  -3.4353329498190655e-01  -3.4355856800065715e-01  -3.4359258625607986e-01  -3.4363819244350241e-01  -3.4369905950998780e-01  -3.4377989860022734e-01  -3.4388670909150509e-01  -3.4402707570060231e-01  -3.4421051716768830e-01  -3.4444889006202534e-01  -3.4475684967891290e-01  -3.4515236766450841e-01  -3.4565730277457712e-01  -3.4629801692530615e-01  -3.4710602336017904e-01  -3.4811864736173820e-01  -3.4937967265866504e-01  -3.5093993891931125e-01  -3.5285784818621446e-01  -3.5519973185992665e-01  -3.5804002633305854e-01  -3.6146120636099915e-01  -3.6555343257831824e-01  -3.7041388477200338e-01  -3.7614577629338808e-01  -3.8285707654983053e-01  -3.9065900513637858e-01  -3.9966439809665577e-01  -4.0998607784681812e-01  -4.2173537711421683e-01  -4.3502096910668930e-01  -4.4994813957558705e-01  -4.6661860408701356e-01  -3.4370819807144343e-01  -3.4371003113689402e-01  -3.4371288941990896e-01  -3.4371695435069827e-01  -3.4372254422495097e-01  -3.4373013968035876e-01  -3.4374042132070948e-01  -3.4375432140154505e-01  -3.4377309205961937e-01  -3.4379839313914368e-01  -3.4383240322709940e-01  -3.4387795803440396e-01  -3.4393872071463222e-01  -3.4401938904905582e-01  -3.4412594458229046e-01  -3.4426594868617449e-01  -3.4444889006202534e-01  -3.4468658724680967e-01  -3.4499364813534522e-01  -3.4538798622707306e-01  -3.4589139011213010e-01  -3.4653013850721098e-01  -3.4733564786591820e-01  -3.4834513324161059e-01  -3.4960225584338533e-01  -3.5115772298881787e-01  -3.5306979860897758e-01  -3.5540467615177085e-01  -3.5823666208889421e-01  -3.6164811899987731e-01  -3.6572912422535292e-01  -3.7057681491089572e-01  -3.7629441363645733e-01  -3.8298996003950658e-01  -3.9077481026103761e-01  -3.9976200301956161e-01  -4.1006462251716513e-01  -4.2179430785523603e-01  -4.3506006137493247e-01  -4.4996749273751735e-01  -4.6661860408701356e-01  -3.4401687122269992e-01  -3.4401898484107662e-01  -3.4402209161987740e-01  -3.4402637339586029e-01  -3.4403214867887649e-01  -3.4403989796845491e-01  -3.4405030116825397e-01  -3.4406428900274078e-01  -3.4408311090660926e-01  -3.4410842242594730e-01  -3.4414239572727856e-01  -3.4418785733339363e-01  -3.4424845765908291e-01  -3.4432887725791944e-01  -3.4443507485030761e-01  -3.4457458210351161e-01  -3.4475684967891290e-01  -3.4499364813534522e-01  -3.4529952574968037e-01  -3.4569232304665293e-01  -3.4619374067968811e-01  -3.4682995315248644e-01  -3.4763225564387512e-01  -3.4863772491162814e-01  -3.4988986806620542e-01  -3.5143922530071980e-01  -3.5334388510972992e-01  -3.5566986415482055e-01  -3.5849130014669739e-01  -3.6189040663340860e-01  -3.6595714524771306e-01  -3.7078858535017878e-01  -3.7648794389114765e-01  -3.8316332908480599e-01  -3.9092624762625761e-01  -3.9988997215589128e-01  -4.1016789743832477e-01  -4.2187203393289330e-01  -4.3511179118675519e-01  -4.4999318902051205e-01  -4.6661860408701356e-01  -3.4441380239312663e-01  -3.4441624073864263e-01  -3.4441963214218069e-01  -3.4442415898786205e-01  -3.4443014001266425e-01  -3.4443805542744615e-01  -3.4444858407342660e-01  -3.4446265450659108e-01  -3.4448151246632486e-01  -3.4450680775041176e-01  -3.4454070407302445e-01  -3.4458601600301197e-01  -3.4464637753304900e-01  -3.4472644716928713e-01  -3.4483215459428190e-01  -3.4497099386477920e-01  -3.4515236766450835e-01  -3.4538