<?xml version="1.0"?>
<VTKFile type="UnstructuredGrid"  version="0.1"  >
<UnstructuredGrid>
<Piece  NumberOfPoints="1681" NumberOfCells="3200">
<Points>
<DataArray  type="Float64"  NumberOfComponents="3"  format="ascii">0 0 0  0.5 0 0  1 0 0  1.5 0 0  2 0 0  2.5 0 0  3 0 0  3.5 0 0  4 0 0  4.5 0 0  5 0 0  5.5 0 0  6 0 0  6.5 0 0  7 0 0  7.5 0 0  8 0 0  8.5 0 0  9 0 0  9.5 0 0  10 0 0  10.5 0 0  11 0 0  11.5 0 0  12 0 0  12.5 0 0  13 0 0  13.5 0 0  14 0 0  14.5 0 0  15 0 0  15.5 0 0  16 0 0  16.5 0 0  17 0 0  17.5 0 0  18 0 0  18.5 0 0  19 0 0  19.5 0 0  20 0 0  0 0.5 0  0.5 0.5 0  1 0.5 0  1.5 0.5 0  2 0.5 0  2.5 0.5 0  3 0.5 0  3.5 0.5 0  4 0.5 0  4.5 0.5 0  5 0.5 0  5.5 0.5 0  6 0.5 0  6.5 0.5 0  7 0.5 0  7.5 0.5 0  8 0.5 0  8.5 0.5 0  9 0.5 0  9.5 0.5 0  10 0.5 0  10.5 0.5 0  11 0.5 0  11.5 0.5 0  12 0.5 0  12.5 0.5 0  13 0.5 0  13.5 0.5 0  14 0.5 0  14.5 0.5 0  15 0.5 0  15.5 0.5 0  16 0.5 0  16.5 0.5 0  17 0.5 0  17.5 0.5 0  18 0.5 0  18.5 0.5 0  19 0.5 0  19.5 0.5 0  20 0.5 0  0 1 0  0.5 1 0  1 1 0  1.5 1 0  2 1 0  2.5 1 0  3 1 0  3.5 1 0  4 1 0  4.5 1 0  5 1 0  5.5 1 0  6 1 0  6.5 1 0  7 1 0  7.5 1 0  8 1 0  8.5 1 0  9 1 0  9.5 1 0  10 1 0  10.5 1 0  11 1 0  11.5 1 0  12 1 0  12.5 1 0  13 1 0  13.5 1 0  14 1 0  14.5 1 0  15 1 0  15.5 1 0  16 1 0  16.5 1 0  17 1 0  17.5 1 0  18 1 0  18.5 1 0  19 1 0  19.5 1 0  20 1 0  0 1.5 0  0.5 1.5 0  1 1.5 0  1.5 1.5 0  2 1.5 0  2.5 1.5 0  3 1.5 0  3.5 1.5 0  4 1.5 0  4.5 1.5 0  5 1.5 0  5.5 1.5 0  6 1.5 0  6.5 1.5 0  7 1.5 0  7.5 1.5 0  8 1.5 0  8.5 1.5 0  9 1.5 0  9.5 1.5 0  10 1.5 0  10.5 1.5 0  11 1.5 0  11.5 1.5 0  12 1.5 0  12.5 1.5 0  13 1.5 0  13.5 1.5 0  14 1.5 0  14.5 1.5 0  15 1.5 0  15.5 1.5 0  16 1.5 0  16.5 1.5 0  17 1.5 0  17.5 1.5 0  18 1.5 0  18.5 1.5 0  19 1.5 0  19.5 1.5 0  20 1.5 0  0 2 0  0.5 2 0  1 2 0  1.5 2 0  2 2 0  2.5 2 0  3 2 0  3.5 2 0  4 2 0  4.5 2 0  5 2 0  5.5 2 0  6 2 0  6.5 2 0  7 2 0  7.5 2 0  8 2 0  8.5 2 0  9 2 0  9.5 2 0  10 2 0  10.5 2 0  11 2 0  11.5 2 0  12 2 0  12.5 2 0  13 2 0  13.5 2 0  14 2 0  14.5 2 0  15 2 0  15.5 2 0  16 2 0  16.5 2 0  17 2 0  17.5 2 0  18 2 0  18.5 2 0  19 2 0  19.5 2 0  20 2 0  0 2.5 0  0.5 2.5 0  1 2.5 0  1.5 2.5 0  2 2.5 0  2.5 2.5 0  3 2.5 0  3.5 2.5 0  4 2.5 0  4.5 2.5 0  5 2.5 0  5.5 2.5 0  6 2.5 0  6.5 2.5 0  7 2.5 0  7.5 2.5 0  8 2.5 0  8.5 2.5 0  9 2.5 0  9.5 2.5 0  10 2.5 0  10.5 2.5 0  11 2.5 0  11.5 2.5 0  12 2.5 0  12.5 2.5 0  13 2.5 0  13.5 2.5 0  14 2.5 0  14.5 2.5 0  15 2.5 0  15.5 2.5 0  16 2.5 0  16.5 2.5 0  17 2.5 0  17.5 2.5 0  18 2.5 0  18.5 2.5 0  19 2.5 0  19.5 2.5 0  20 2.5 0  0 3 0  0.5 3 0  1 3 0  1.5 3 0  2 3 0  2.5 3 0  3 3 0  3.5 3 0  4 3 0  4.5 3 0  5 3 0  5.5 3 0  6 3 0  6.5 3 0  7 3 0  7.5 3 0  8 3 0  8.5 3 0  9 3 0  9.5 3 0  10 3 0  10.5 3 0  11 3 0  11.5 3 0  12 3 0  12.5 3 0  13 3 0  13.5 3 0  14 3 0  14.5 3 0  15 3 0  15.5 3 0  16 3 0  16.5 3 0  17 3 0  17.5 3 0  18 3 0  18.5 3 0  19 3 0  19.5 3 0  20 3 0  0 3.5 0  0.5 3.5 0  1 3.5 0  1.5 3.5 0  2 3.5 0  2.5 3.5 0  3 3.5 0  3.5 3.5 0  4 3.5 0  4.5 3.5 0  5 3.5 0  5.5 3.5 0  6 3.5 0  6.5 3.5 0  7 3.5 0  7.5 3.5 0  8 3.5 0  8.5 3.5 0  9 3.5 0  9.5 3.5 0  10 3.5 0  10.5 3.5 0  11 3.5 0  11.5 3.5 0  12 3.5 0  12.5 3.5 0  13 3.5 0  13.5 3.5 0  14 3.5 0  14.5 3.5 0  15 3.5 0  15.5 3.5 0  16 3.5 0  16.5 3.5 0  17 3.5 0  17.5 3.5 0  18 3.5 0  18.5 3.5 0  19 3.5 0  19.5 3.5 0  20 3.5 0  0 4 0  0.5 4 0  1 4 0  1.5 4 0  2 4 0  2.5 4 0  3 4 0  3.5 4 0  4 4 0  4.5 4 0  5 4 0  5.5 4 0  6 4 0  6.5 4 0  7 4 0  7.5 4 0  8 4 0  8.5 4 0  9 4 0  9.5 4 0  10 4 0  10.5 4 0  11 4 0  11.5 4 0  12 4 0  12.5 4 0  13 4 0  13.5 4 0  14 4 0  14.5 4 0  15 4 0  15.5 4 0  16 4 0  16.5 4 0  17 4 0  17.5 4 0  18 4 0  18.5 4 0  19 4 0  19.5 4 0  20 4 0  0 4.5 0  0.5 4.5 0  1 4.5 0  1.5 4.5 0  2 4.5 0  2.5 4.5 0  3 4.5 0  3.5 4.5 0  4 4.5 0  4.5 4.5 0  5 4.5 0  5.5 4.5 0  6 4.5 0  6.5 4.5 0  7 4.5 0  7.5 4.5 0  8 4.5 0  8.5 4.5 0  9 4.5 0  9.5 4.5 0  10 4.5 0  10.5 4.5 0  11 4.5 0  11.5 4.5 0  12 4.5 0  12.5 4.5 0  13 4.5 0  13.5 4.5 0  14 4.5 0  14.5 4.5 0  15 4.5 0  15.5 4.5 0  16 4.5 0  16.5 4.5 0  17 4.5 0  17.5 4.5 0  18 4.5 0  18.5 4.5 0  19 4.5 0  19.5 4.5 0  20 4.5 0  0 5 0  0.5 5 0  1 5 0  1.5 5 0  2 5 0  2.5 5 0  3 5 0  3.5 5 0  4 5 0  4.5 5 0  5 5 0  5.5 5 0  6 5 0  6.5 5 0  7 5 0  7.5 5 0  8 5 0  8.5 5 0  9 5 0  9.5 5 0  10 5 0  10.5 5 0  11 5 0  11.5 5 0  12 5 0  12.5 5 0  13 5 0  13.5 5 0  14 5 0  14.5 5 0  15 5 0  15.5 5 0  16 5 0  16.5 5 0  17 5 0  17.5 5 0  18 5 0  18.5 5 0  19 5 0  19.5 5 0  20 5 0  0 5.5 0  0.5 5.5 0  1 5.5 0  1.5 5.5 0  2 5.5 0  2.5 5.5 0  3 5.5 0  3.5 5.5 0  4 5.5 0  4.5 5.5 0  5 5.5 0  5.5 5.5 0  6 5.5 0  6.5 5.5 0  7 5.5 0  7.5 5.5 0  8 5.5 0  8.5 5.5 0  9 5.5 0  9.5 5.5 0  10 5.5 0  10.5 5.5 0  11 5.5 0  11.5 5.5 0  12 5.5 0  12.5 5.5 0  13 5.5 0  13.5 5.5 0  14 5.5 0  14.5 5.5 0  15 5.5 0  15.5 5.5 0  16 5.5 0  16.5 5.5 0  17 5.5 0  17.5 5.5 0  18 5.5 0  18.5 5.5 0  19 5.5 0  19.5 5.5 0  20 5.5 0  0 6 0  0.5 6 0  1 6 0  1.5 6 0  2 6 0  2.5 6 0  3 6 0  3.5 6 0  4 6 0  4.5 6 0  5 6 0  5.5 6 0  6 6 0  6.5 6 0  7 6 0  7.5 6 0  8 6 0  8.5 6 0  9 6 0  9.5 6 0  10 6 0  10.5 6 0  11 6 0  11.5 6 0  12 6 0  12.5 6 0  13 6 0  13.5 6 0  14 6 0  14.5 6 0  15 6 0  15.5 6 0  16 6 0  16.5 6 0  17 6 0  17.5 6 0  18 6 0  18.5 6 0  19 6 0  19.5 6 0  20 6 0  0 6.5 0  0.5 6.5 0  1 6.5 0  1.5 6.5 0  2 6.5 0  2.5 6.5 0  3 6.5 0  3.5 6.5 0  4 6.5 0  4.5 6.5 0  5 6.5 0  5.5 6.5 0  6 6.5 0  6.5 6.5 0  7 6.5 0  7.5 6.5 0  8 6.5 0  8.5 6.5 0  9 6.5 0  9.5 6.5 0  10 6.5 0  10.5 6.5 0  11 6.5 0  11.5 6.5 0  12 6.5 0  12.5 6.5 0  13 6.5 0  13.5 6.5 0  14 6.5 0  14.5 6.5 0  15 6.5 0  15.5 6.5 0  16 6.5 0  16.5 6.5 0  17 6.5 0  17.5 6.5 0  18 6.5 0  18.5 6.5 0  19 6.5 0  19.5 6.5 0  20 6.5 0  0 7 0  0.5 7 0  1 7 0  1.5 7 0  2 7 0  2.5 7 0  3 7 0  3.5 7 0  4 7 0  4.5 7 0  5 7 0  5.5 7 0  6 7 0  6.5 7 0  7 7 0  7.5 7 0  8 7 0  8.5 7 0  9 7 0  9.5 7 0  10 7 0  10.5 7 0  11 7 0  11.5 7 0  12 7 0  12.5 7 0  13 7 0  13.5 7 0  14 7 0  14.5 7 0  15 7 0  15.5 7 0  16 7 0  16.5 7 0  17 7 0  17.5 7 0  18 7 0  18.5 7 0  19 7 0  19.5 7 0  20 7 0  0 7.5 0  0.5 7.5 0  1 7.5 0  1.5 7.5 0  2 7.5 0  2.5 7.5 0  3 7.5 0  3.5 7.5 0  4 7.5 0  4.5 7.5 0  5 7.5 0  5.5 7.5 0  6 7.5 0  6.5 7.5 0  7 7.5 0  7.5 7.5 0  8 7.5 0  8.5 7.5 0  9 7.5 0  9.5 7.5 0  10 7.5 0  10.5 7.5 0  11 7.5 0  11.5 7.5 0  12 7.5 0  12.5 7.5 0  13 7.5 0  13.5 7.5 0  14 7.5 0  14.5 7.5 0  15 7.5 0  15.5 7.5 0  16 7.5 0  16.5 7.5 0  17 7.5 0  17.5 7.5 0  18 7.5 0  18.5 7.5 0  19 7.5 0  19.5 7.5 0  20 7.5 0  0 8 0  0.5 8 0  1 8 0  1.5 8 0  2 8 0  2.5 8 0  3 8 0  3.5 8 0  4 8 0  4.5 8 0  5 8 0  5.5 8 0  6 8 0  6.5 8 0  7 8 0  7.5 8 0  8 8 0  8.5 8 0  9 8 0  9.5 8 0  10 8 0  10.5 8 0  11 8 0  11.5 8 0  12 8 0  12.5 8 0  13 8 0  13.5 8 0  14 8 0  14.5 8 0  15 8 0  15.5 8 0  16 8 0  16.5 8 0  17 8 0  17.5 8 0  18 8 0  18.5 8 0  19 8 0  19.5 8 0  20 8 0  0 8.5 0  0.5 8.5 0  1 8.5 0  1.5 8.5 0  2 8.5 0  2.5 8.5 0  3 8.5 0  3.5 8.5 0  4 8.5 0  4.5 8.5 0  5 8.5 0  5.5 8.5 0  6 8.5 0  6.5 8.5 0  7 8.5 0  7.5 8.5 0  8 8.5 0  8.5 8.5 0  9 8.5 0  9.5 8.5 0  10 8.5 0  10.5 8.5 0  11 8.5 0  11.5 8.5 0  12 8.5 0  12.5 8.5 0  13 8.5 0  13.5 8.5 0  14 8.5 0  14.5 8.5 0  15 8.5 0  15.5 8.5 0  16 8.5 0  16.5 8.5 0  17 8.5 0  17.5 8.5 0  18 8.5 0  18.5 8.5 0  19 8.5 0  19.5 8.5 0  20 8.5 0  0 9 0  0.5 9 0  1 9 0  1.5 9 0  2 9 0  2.5 9 0  3 9 0  3.5 9 0  4 9 0  4.5 9 0  5 9 0  5.5 9 0  6 9 0  6.5 9 0  7 9 0  7.5 9 0  8 9 0  8.5 9 0  9 9 0  9.5 9 0  10 9 0  10.5 9 0  11 9 0  11.5 9 0  12 9 0  12.5 9 0  13 9 0  13.5 9 0  14 9 0  14.5 9 0  15 9 0  15.5 9 0  16 9 0  16.5 9 0  17 9 0  17.5 9 0  18 9 0  18.5 9 0  19 9 0  19.5 9 0  20 9 0  0 9.5 0  0.5 9.5 0  1 9.5 0  1.5 9.5 0  2 9.5 0  2.5 9.5 0  3 9.5 0  3.5 9.5 0  4 9.5 0  4.5 9.5 0  5 9.5 0  5.5 9.5 0  6 9.5 0  6.5 9.5 0  7 9.5 0  7.5 9.5 0  8 9.5 0  8.5 9.5 0  9 9.5 0  9.5 9.5 0  10 9.5 0  10.5 9.5 0  11 9.5 0  11.5 9.5 0  12 9.5 0  12.5 9.5 0  13 9.5 0  13.5 9.5 0  14 9.5 0  14.5 9.5 0  15 9.5 0  15.5 9.5 0  16 9.5 0  16.5 9.5 0  17 9.5 0  17.5 9.5 0  18 9.5 0  18.5 9.5 0  19 9.5 0  19.5 9.5 0  20 9.5 0  0 10 0  0.5 10 0  1 10 0  1.5 10 0  2 10 0  2.5 10 0  3 10 0  3.5 10 0  4 10 0  4.5 10 0  5 10 0  5.5 10 0  6 10 0  6.5 10 0  7 10 0  7.5 10 0  8 10 0  8.5 10 0  9 10 0  9.5 10 0  10 10 0  10.5 10 0  11 10 0  11.5 10 0  12 10 0  12.5 10 0  13 10 0  13.5 10 0  14 10 0  14.5 10 0  15 10 0  15.5 10 0  16 10 0  16.5 10 0  17 10 0  17.5 10 0  18 10 0  18.5 10 0  19 10 0  19.5 10 0  20 10 0  0 10.5 0  0.5 10.5 0  1 10.5 0  1.5 10.5 0  2 10.5 0  2.5 10.5 0  3 10.5 0  3.5 10.5 0  4 10.5 0  4.5 10.5 0  5 10.5 0  5.5 10.5 0  6 10.5 0  6.5 10.5 0  7 10.5 0  7.5 10.5 0  8 10.5 0  8.5 10.5 0  9 10.5 0  9.5 10.5 0  10 10.5 0  10.5 10.5 0  11 10.5 0  11.5 10.5 0  12 10.5 0  12.5 10.5 0  13 10.5 0  13.5 10.5 0  14 10.5 0  14.5 10.5 0  15 10.5 0  15.5 10.5 0  16 10.5 0  16.5 10.5 0  17 10.5 0  17.5 10.5 0  18 10.5 0  18.5 10.5 0  19 10.5 0  19.5 10.5 0  20 10.5 0  0 11 0  0.5 11 0  1 11 0  1.5 11 0  2 11 0  2.5 11 0  3 11 0  3.5 11 0  4 11 0  4.5 11 0  5 11 0  5.5 11 0  6 11 0  6.5 11 0  7 11 0  7.5 11 0  8 11 0  8.5 11 0  9 11 0  9.5 11 0  10 11 0  10.5 11 0  11 11 0  11.5 11 0  12 11 0  12.5 11 0  13 11 0  13.5 11 0  14 11 0  14.5 11 0  15 11 0  15.5 11 0  16 11 0  16.5 11 0  17 11 0  17.5 11 0  18 11 0  18.5 11 0  19 11 0  19.5 11 0  20 11 0  0 11.5 0  0.5 11.5 0  1 11.5 0  1.5 11.5 0  2 11.5 0  2.5 11.5 0  3 11.5 0  3.5 11.5 0  4 11.5 0  4.5 11.5 0  5 11.5 0  5.5 11.5 0  6 11.5 0  6.5 11.5 0  7 11.5 0  7.5 11.5 0  8 11.5 0  8.5 11.5 0  9 11.5 0  9.5 11.5 0  10 11.5 0  10.5 11.5 0  11 11.5 0  11.5 11.5 0  12 11.5 0  12.5 11.5 0  13 11.5 0  13.5 11.5 0  14 11.5 0  14.5 11.5 0  15 11.5 0  15.5 11.5 0  16 11.5 0  16.5 11.5 0  17 11.5 0  17.5 11.5 0  18 11.5 0  18.5 11.5 0  19 11.5 0  19.5 11.5 0  20 11.5 0  0 12 0  0.5 12 0  1 12 0  1.5 12 0  2 12 0  2.5 12 0  3 12 0  3.5 12 0  4 12 0  4.5 12 0  5 12 0  5.5 12 0  6 12 0  6.5 12 0  7 12 0  7.5 12 0  8 12 0  8.5 12 0  9 12 0  9.5 12 0  10 12 0  10.5 12 0  11 12 0  11.5 12 0  12 12 0  12.5 12 0  13 12 0  13.5 12 0  14 12 0  14.5 12 0  
[...]
<PointData  Scalars="f_5623-1"> 
<DataArray  type="Float64"  Name="f_5623-1"  format="ascii">-3.4274276122162034e-01  -3.4274359536799509e-01  -3.4274563531844726e-01  -3.4274916307263581e-01  -3.4275455730132426e-01  -3.4276236266162707e-01  -3.4277334139414933e-01  -3.4278853272095067e-01  -3.4280932796212510e-01  -3.4283756583733199e-01  -3.4287565199232622e-01  -3.4292670701845734e-01  -3.4299474754957709e-01  -3.4308490524405350e-01  -3.4320368848588179e-01  -3.4335929137179128e-01  -3.4356195388427158e-01  -3.4382437596367799e-01  -3.4416218635536305e-01  -3.4459446448637648e-01  -3.4514431009794572e-01  -3.4583945083573064e-01  -3.4671287245852611e-01  -3.4780344986140044e-01  -3.4915654999031093e-01  -3.5082457046554294e-01  -3.5286737115440364e-01  -3.5535255121200809e-01  -3.5835552274136045e-01  -3.6195933590600410e-01  -3.6625422067814078e-01  -3.7133682852947325e-01  -3.7730918332706315e-01  -3.8427738297971697e-01  -3.9235012869635250e-01  -4.0163719232939021e-01  -4.1224795933123021e-01  -4.2429020344367385e-01  -4.3786926779411373e-01  -4.5308788548269641e-01  -4.7004710228015839e-01  -3.4274359536799509e-01  -3.4274429039132898e-01  -3.4274630660518818e-01  -3.4274983877965987e-01  -3.4275524698746396e-01  -3.4276307221303187e-01  -3.4277407665850385e-01  -3.4278930062648805e-01  -3.4281013704294194e-01  -3.4283842661709885e-01  -3.4287657733930421e-01  -3.4292771249663145e-01  -3.4299585176232184e-01  -3.4308613015343292e-01  -3.4320505968113318e-01  -3.4336083825170588e-01  -3.4356370970934996e-01  -3.4382637772528529e-01  -3.4416447440135561e-01  -3.4459708183704790e-01  -3.4514730138448324e-01  -3.4584286079821147e-01  -3.4671674395506741e-01  -3.4780782136823157e-01  -3.4916145261818693e-01  -3.5083002458409474e-01  -3.5287338280321934e-01  -3.5535910858112152e-01  -3.5836259311253665e-01  -3.6196686353816154e-01  -3.6626212616331022e-01  -3.7134501009870524e-01  -3.7731752040050326e-01  -3.8428574186953196e-01  -3.9235836965881404e-01  -4.0164517571929798e-01  -4.1225554494595207e-01  -4.2429722562402711e-01  -4.3787542821017711e-01  -4.5309235665151582e-01  -4.7004710228015839e-01  -3.4274563531844726e-01  -3.4274630660518818e-01  -3.4274831389469812e-01  -3.4275185079217324e-01  -3.4275727221578123e-01  -3.4276511689134481e-01  -3.4277614670589374e-01  -3.4279140267055297e-01  -3.4281227901014627e-01  -3.4284061814627503e-01  -3.4287883012359421e-01  -3.4293004058910598e-01  -3.4299827184832044e-01  -3.4308866177565794e-01  -3.4320772539236272e-01  -3.4336366366116772e-01  -3.4356672338129596e-01  -3.4382961088222636e-01  -3.4416796038051894e-01  -3.4460085524815803e-01  -3.4515139692164959e-01  -3.4584731167060395e-01  -3.4672157992249097e-01  -3.4781306640087756e-01  -3.4916712224624424e-01  -3.5083612306236428e-01  -3.5287990028515404e-01  -3.5536601856784256e-01  -3.5836985050098780e-01  -3.6197440361669780e-01  -3.6626986486277741e-01  -3.7135284566470561e-01  -3.7732533635990334e-01  -3.8429341064906475e-01  -3.9236575533565177e-01  -4.0165213282993972e-01  -4.1226190739278423e-01  -4.2430277452875348e-01  -4.3787982087292660e-01  -4.5309500601524461e-01  -4.7004710228015839e-01  -3.4274916307263581e-01  -3.4274983877965981e-01  -3.4275185079217324e-01  -3.4275539766843821e-01  -3.4276083448577183e-01  -3.4276869965593743e-01  -3.4277975525272630e-01  -3.4279504301447522e-01  -3.4281595832650080e-01  -3.4284434511726586e-01  -3.4288261522734109e-01  -3.4293389634365323e-01  -3.4300221300654099e-01  -3.4309270545465137e-01  -3.4321189111147060e-01  -3.4336797325521046e-01  -3.4357120074990272e-01  -3.4383428153263901e-01  -3.4417285072092935e-01  -3.4460599159278216e-01  -3.4515680417889311e-01  -3.4585301170347910e-01  -3.4672758959736050e-01  -3.4781939537748852e-01  -3.4917377060845561e-01  -3.5084307894243039e-01  -3.5288713768914509e-01  -3.5537349565576104e-01  -3.5837750859734074e-01  -3.6198216720561704e-01  -3.6627764273209440e-01  -3.7136053317939721e-01  -3.7733281854063838e-01  -3.8430056528101231e-01  -3.9237245471673199e-01  -4.0165824200504968e-01  -4.1226727602007068e-01  -4.2430721980361752e-01  -4.3788310316461626e-01  -4.5309681423329790e-01  -4.7004710228015839e-01  -3.4275455730132420e-01  -3.4275524698746390e-01  -3.4275727221578117e-01  -3.4276083448577183e-01  -3.4276629000183689e-01  -3.4277417770342117e-01  -3.4278526023204431e-01  -3.4280058013947867e-01  -3.4282153390089459e-01  -3.4284996678874363e-01  -3.4288829220487721e-01  -3.4293963956884754e-01  -3.4300803526507734e-01  -3.4309862140681119e-01  -3.4321791721377143e-01  -3.4337412753956570e-01  -3.4357750242293900e-01  -3.4384075035686068e-01  -3.4417950614243531e-01  -3.4461285158857319e-01  -3.4516388381188512e-01  -3.4586032139643047e-01  -3.4673513316879967e-01  -3.4782716792316815e-01  -3.4918175635899590e-01  -3.5085124927737010e-01  -3.5289544953216934e-01  -3.5538189050430158e-01  -3.5838591243734319e-01  -3.6199049151185514e-01  -3.6628578663891698e-01  -3.7136838671367822e-01  -3.7734026653657365e-01  -3.8430749126554214e-01  -3.9237874372686687e-01  -4.0166378112241402e-01  -4.1227195170935071e-01  -4.2431091256513143e-01  -4.3788568357960572e-01  -4.5309815109649332e-01  -4.7004710228015839e-01  -3.4276236266162707e-01  -3.4276307221303182e-01  -3.4276511689134481e-01  -3.4276869965593743e-01  -3.4277417770342122e-01  -3.4278209069957116e-01  -3.4279320200224050e-01  -3.4280855500788920e-01  -3.4282954721159214e-01  -3.4285802507838525e-01  -3.4289640334597882e-01  -3.4294781286363724e-01  -3.4301628146875957e-01  -3.4310695265477126e-01  -3.4322634682235997e-01  -3.4338266964612557e-01  -3.4358617142886727e-01  -3.4384956013895390e-01  -3.4418846900390265e-01  -3.4462197693335034e-01  -3.4517317654559743e-01  -3.4586978008553332e-01  -3.4674474802630839e-01  -3.4783691873392336e-01  -3.4919161050660402e-01  -3.5086116008323948e-01  -3.5290535515574623e-01  -3.5539171367084538e-01  -3.5839556124109101e-01  -3.6199986147355251e-01  -3.6629476406616357e-01  -3.7137685321819092e-01  -3.7734810431911020e-01  -3.8431458852872480e-01  -3.9238499940016208e-01  -4.0166910811801787e-01  -4.1227627837043024e-01  -4.2431418304810109e-01  -4.3788785976410033e-01  -4.5309922102801786e-01  -4.7004710228015839e-01  -3.4277334139414939e-01  -3.4277407665850385e-01  -3.4277614670589374e-01  -3.4277975525272630e-01  -3.4278526023204431e-01  -3.4279320200224050e-01  -3.4280434464353032e-01  -3.4281973236548169e-01  -3.4284076359126642e-01  -3.4286928582073245e-01  -3.4290771489874072e-01  -3.4295918279575766e-01  -3.4302771840068030e-01  -3.4311846607599295e-01  -3.4323794676348468e-01  -3.4339436616990926e-01  -3.4359797390459146e-01  -3.4386147626809277e-01  -3.4420050357413406e-01  -3.4463413029396306e-01  -3.4518544282162206e-01  -3.4588214518129379e-01  -3.4675718751140883e-01  -3.4784939575426232e-01  -3.4920407391596825e-01  -3.5087354304070650e-01  -3.5291757447073230e-01  -3.5540367018847852e-01  -3.5840714153130387e-01  -3.6201094100446862e-01  -3.6630521189791293e-01  -3.7138653805049454e-01  -3.7735690148637924e-01  -3.8432238730626150e-01  -3.9239170983815264e-01  -4.0167466665245843e-01  -4.1228065176890505e-01  -4.2431737088503196e-01  -4.3788989651955357e-01  -4.5310017979634437e-01  -4.7004710228015839e-01  -3.4278853272095067e-01  -3.4278930062648805e-01  -3.4279140267055291e-01  -3.4279504301447516e-01  -3.4280058013947867e-01  -3.4280855500788920e-01  -3.4281973236548169e-01  -3.4283515716209645e-01  -3.4285622863410392e-01  -3.4288479514413617e-01  -3.4292327340267836e-01  -3.4297479617665871e-01  -3.4304339298201691e-01  -3.4313420850666998e-01  -3.4325376354875370e-01  -3.4341026299773408e-01  -3.4361395473156126e-01  -3.4387754213466676e-01  -3.4421665113086930e-01  -3.4465035004008260e-01  -3.4520171708620073e-01  -3.4589844591622543e-01  -3.4677347401376568e-01  -3.4786561249148906e-01  -3.4922014868594037e-01  -3.5088938575235856e-01  -3.5293307686874353e-01  -3.5541870685350935e-01  -3.5842157245022305e-01  -3.6202461590920115e-01  -3.6631797640954422e-01  -3.7139824144184480e-01  -3.7736740561432686e-01  -3.8433157600928292e-01  -3.9239949790902434e-01  -4.0168100745285679e-01  -4.1228554270822293e-01  -4.2432085634758376e-01  -4.3789206831247401e-01  -4.5310117558406576e-01  -4.7004710228015839e-01  -3.4280932796212504e-01  -3.4281013704294189e-01  -3.4281227901014627e-01  -3.4281595832650080e-01  -3.4282153390089459e-01  -3.4282954721159214e-01  -3.4284076359126642e-01  -3.4285622863410392e-01  -3.4287734225507172e-01  -3.4290595348895653e-01  -3.4294447964887526e-01  -3.4299605394522592e-01  -3.4306470605781580e-01  -3.4315558040345717e-01  -3.4327519688067570e-01  -3.4343175861795261e-01  -3.4363551060101238e-01  -3.4389915189150067e-01  -3.4423830234570563e-01  -3.4467202216565923e-01  -3.4522337914379125e-01  -3.4592005400611292e-01  -3.4679496879254301e-01  -3.4788691682245199e-01  -3.4924116573505504e-01  -3.5090999786252580e-01  -3.5295314558699847e-01  -3.5543807449383841e-01  -3.5844006553176355e-01  -3.6204205070034068e-01  -3.6633416662411755e-01  -3.7141300787821413e-01  -3.7738058722398721e-01  -3.8434304157216981e-01  -3.9240915723883213e-01  -4.0168882092363412e-01  -4.1229152793408114e-01  -4.2432509107005995e-01  -4.3789468889614913e-01  -4.5310237083297000e-01  -4.7004710228015839e-01  -3.4283756583733199e-01  -3.4283842661709879e-01  -3.4284061814627503e-01  -3.4284434511726586e-01  -3.4284996678874363e-01  -3.4285802507838525e-01  -3.4286928582073245e-01  -3.4288479514413617e-01  -3.4290595348895647e-01  -3.4293461034784739e-01  -3.4297318334208365e-01  -3.4302480572957628e-01  -3.4309350683219042e-01  -3.4318443012005251e-01  -3.4330409373121035e-01  -3.4346069795231138e-01  -3.4366448353914952e-01  -3.4392814359871665e-01  -3.4426728995870243e-01  -3.4470097238409803e-01  -3.4525224554111344e-01  -3.4594877416501141e-01  -3.4682346143409509e-01  -3.4791507917071618e-01  -3.4926887143496493e-01  -3.5093709583841809e-01  -3.5297946027813742e-01  -3.5546340791413861e-01  -3.5846420155386877e-01  -3.6206476184106023e-01  -3.6635522339753934e-01  -3.7143219048658488e-01  -3.7739769899627351e-01  -3.8435792318041240e-01  -3.9242170038688334e-01  -4.0169897998350401e-01  -4.1229932796229402e-01  -4.2433063079546801e-01  -4.3789813759981266e-01  -4.5310395843826196e-01  -4.7004710228015839e-01  -3.4287565199232622e-01  -3.4287657733930421e-01  -3.4287883012359421e-01  -3.4288261522734109e-01  -3.4288829220487721e-01  -3.4289640334597882e-01  -3.4290771489874072e-01  -3.4292327340267836e-01  -3.4294447964887520e-01  -3.4297318334208360e-01  -3.4301180207275439e-01  -3.4306346868866133e-01  -3.4313221154794138e-01  -3.4322317238615968e-01  -3.4334286657231561e-01  -3.4349949027897192e-01  -3.4370327844956805e-01  -3.4396691629553089e-01  -3.4430600526917793e-01  -3.4473958190350373e-01  -3.4529068446384714e-01  -3.4598695792725409e-01  -3.4686128236488745e-01  -3.4795240343233563e-01  -3.4930553662181640e-01  -3.5097290968543093e-01  -3.5301420098908348e-01  -3.5549682663702575e-01  -3.5849602748154596e-01  -3.6209471027832202e-01  -3.6638300689615388e-01  -3.7145753280598132e-01  -3.7742035122106499e-01  -3.8437768086357155e-01  -3.9243842016024583e-01  -4.0171259376909701e-01  -4.1230985280540600e-01  -4.2433817246879874e-01  -4.3790288649104891e-01  -4.5310617676600279e-01  -4.7004710228015839e-01  -3.4292670701845734e-01  -3.4292771249663145e-01  -3.4293004058910598e-01  -3.4293389634365323e-01  -3.4293963956884754e-01  -3.4294781286363724e-01  -3.4295918279575766e-01  -3.4297479617665871e-01  -3.4299605394522586e-01  -3.4302480572957628e-01  -3.4306346868866128e-01  -3.4311517471679359e-01  -3.4318395048648587e-01  -3.4327493505659379e-01  -3.4339463981694912e-01  -3.4355125529432534e-01  -3.4375500870778214e-01  -3.4401857501865818e-01  -3.4435754244415590e-01  -3.4479093086152535e-01  -3.4534175809905709e-01  -3.4603764469760534e-01  -3.4691144230223048e-01  -3.4800186448625103e-01  -3.4935409176526111e-01  -3.5102031530783029e-01  -3.5306017717618354e-01  -3.5554105996321000e-01  -3.5853817689224116e-01  -3.6213441649069006e-01  -3.6641990547547570e-01  -3.7149127067854415e-01  -3.7745060588210971e-01  -3.8440418098175533e-01  -3.9246096574871975e-01  -4.0173107368689398e-01  -4.1232425716791699e-01  -4.2434859765007221e-01  -4.3790953080915757e-01  -4.5310932561121980e-01  -4.7004710228015839e-01  -3.4299474754957709e-01  -3.4299585176232189e-01  -3.4299827184832044e-01  -3.4300221300654099e-01  -3.4300803526507739e-01  -3.4301628146875957e-01  -3.4302771840068030e-01  -3.4304339298201691e-01  -3.4306470605781580e-01  -3.4309350683219042e-01  -3.4313221154794132e-01  -3.4318395048648587e-01  -3.4325274775630488e-01  -3.4334373859060963e-01  -3.4346342892125770e-01  -3.4362000175342972e-01  -3.4382367423480864e-01  -3.4408710817890842e-01  -3.4442587503757705e-01  -3.4485897379058128e-01  -3.4540939680701194e-01  -3.4610473434021050e-01  -3.4697780291317643e-01  -3.4806727651036162e-01  -3.4941829245568190e-01  -3.5108299660099024e-01  -3.5312098575089790e-01  -3.5559960023094711e-01  -3.5859401762227505e-01  -3.6218710161385798e-01  -3.6646896930752948e-01  -3.7153625734942763e-01  -3.7749109216958787e-01  -3.8443980108148906e-01  -3.9249143585975815e-01  -4.0175621376892579e-01  -4.1234400695394785e-01  -4.2436302406677806e-01  -4.3791882440320090e-01  -4.5311378437086403e-01  -4.7004710228015839e-01  -3.4308490524405355e-01  -3.4308613015343298e-01  -3.4308866177565794e-01  -3.4309270545465137e-01  -3.4309862140681119e-01  -3.4310695265477126e-01  -3.4311846607599295e-01  -3.4313420850666998e-01  -3.4315558040345717e-01  -3.4318443012005251e-01  -3.4322317238615968e-01  -3.4327493505659379e-01  -3.4334373859060963e-01  -3.4343471297500011e-01  -3.4355435685322355e-01  -3.4371084338461760e-01  -3.4391437673379488e-01  -3.4417760196607944e-01  -3.4451606937356227e-01  -3.4494875174625578e-01  -3.4549860971006630e-01  -3.4619319588308139e-01  -3.4706528322009894e-01  -3.4815349659441630e-01  -3.4950291964190955e-01  -3.5116564163418573e-01  -3.5320120242379993e-01  -3.5567688842912742e-01  -3.5866783064835678e-01  -3.6225685848597999e-01  -3.6653407239171176e-01  -3.7159611516725671e-01  -3.7754514653748467e-01  -3.8448755694428044e-01  -3.9253249138301610e-01  -4.0179028758937563e-01  -4.1237095910095911e-01  -4.2438286707881456e-01  -4.3793172162889371e-01  -4.5312003334308926e-01  -4.7004710228015839e-01  -3.4320368848588184e-01  -3.4320505968113324e-01  -3.4320772539236272e-01  -3.4321189111147060e-01  -3.4321791721377148e-01  -3.4322634682235997e-01  -3.4323794676348468e-01  -3.4325376354875375e-01  -3.4327519688067570e-01  -3.4330409373121040e-01  -3.4334286657231561e-01  -3.4339463981694912e-01  -3.4346342892125770e-01  -3.4355435685322355e-01  -3.4367391268442282e-01  -3.4383025682822194e-01  -3.4403357683149915e-01  -3.4429649651397254e-01  -3.4463453951321926e-01  -3.4506664580300178e-01  -3.4561573638351439e-01  -3.4630931699882506e-01  -3.4718010638305502e-01  -3.4826666824096936e-01  -3.4961401916124663e-01  -3.5127417740285655e-01  -3.5330661074594605e-01  -3.5577853646222163e-01  -3.5876502437623220e-01  -3.6234885662919281e-01  -3.6662010677713314e-01  -3.7167541749067562e-01  -3.7761698065676697e-01  -3.8455125489774095e-01  -3.9258749035462309e-01  -4.0183616420021845e-01  -4.1240745687138464e-01  -4.2440991282759766e-01  -4.3794942703764533e-01  -4.5312867890657976e-01  -4.7004710228015839e-01  -3.4335929137179122e-01  -3.4336083825170594e-01  -3.4336366366116777e-01  -3.4336797325521051e-01  -3.4337412753956575e-01  -3.4338266964612557e-01  -3.4339436616990926e-01  -3.4341026299773408e-01  -3.4343175861795261e-01  -3.4346069795231138e-01  -3.4349949027897192e-01  -3.4355125529432534e-01  -3.4362000175342972e-01  -3.4371084338461760e-01  -3.4383025682822194e-01  -3.4398638612156779e-01  -3.4418939764494455e-01  -3.4445188834312868e-01  -3.4478934831863622e-01  -3.4522067642517029e-01  -3.4576874414851894e-01  -3.4646099875064729e-01  -3.4733009133254134e-01  -3.4841450920662809e-01  -3.4975918498453079e-01  -3.5141604753271810e-01  -3.5344447317536420e-01  -3.5591159032192615e-01  -3.5889238849567218e-01  -3.6246958520361799e-01  -3.6673321287841065e-01  -3.7177990449416481e-01  -3.7771188073277251e-01  -3.8463567259705400e-01  -3.9266064813340079e-01  -4.0189744566718683e-01  -4.1245644281222665e-01  -4.2444640485496826e-01  -4.3797345414411221e-01  -4.5314048326989403e-01  -4.7004710228015839e-01  -3.4356195388427152e-01  -3.4356370970934996e-01  -3.4356672338129596e-01  -3.4357120074990277e-01  -3.4357750242293900e-01  -3.4358617142886727e-01  -3.4359797390459146e-01  -3.4361395473156126e-01  -3.4363551060101238e-01  -3.4366448353914952e-01  -3.4370327844956805e-01  -3.4375500870778214e-01  -3.4382367423480864e-01  -3.4391437673379488e-01  -3.4403357683149915e-01  -3.4418939764494455e-01  -3.4439197869623672e-01  -3.4465388301321215e-01  -3.4499055855558308e-01  -3.4542085266505557e-01  -3.4596757492935304e-01  -3.4665809957638910e-01  -3.4752499323517577e-01  -3.4860664767398808e-01  -3.4994789017084471e-01  -3.5160053692842447e-01  -3.5362384815006942e-01  -3.5608483812207387e-01  -3.5905839131502554e-01  -3.6262713777966377e-01  -3.6688104963341434e-01  -3.7191673648866458e-01  -3.7783644162849206e-01  -3.8474677149912800e-01  -3.9275722574235949e-01  -4.0197862883629260e-01  -4.1252159162995305e-01  -4.2449514598898158e-01  -4.3800569454358101e-01  -4.5315639945820407e-01  -4.7004710228015839e-01  -3.4382437596367793e-01  -3.4382637772528524e-01  -3.4382961088222636e-01  -3.4383428153263901e-01  -3.4384075035686068e-01  -3.4384956013895390e-01  -3.4386147626809277e-01  -3.4387754213466670e-01  -3.4389915189150061e-01  -3.4392814359871665e-01  -3.4396691629553089e-01  -3.4401857501865818e-01  -3.4408710817890842e-01  -3.4417760196607938e-01  -3.4429649651397254e-01  -3.4445188834312868e-01  -3.4465388301321215e-01  -3.4491500084883087e-01  -3.4525063692833063e-01  -3.4567957411499306e-01  -3.4622454464008084e-01  -3.4691283151859886e-01  -3.4777689584802263e-01  -3.4885500986213280e-01  -3.5019186869530755e-01  -3.5183914658723991e-01  -3.5385595644350465e-01  -3.5630916632222864e-01  -3.5927352393861894e-01  -3.6283154231100140e-01  -3.6707310787734715e-01  -3.7209478808712509e-01  -3.7799883903371984e-01  -3.8489194412381295e-01  -3.9288374925978670e-01  -4.0208529393264619e-01  -4.1260746522078068e-01  -4.2455961729159625e-01  -4.3804849864547712e-01  -4.5317761219879221e-01  -4.7004710228015839e-01  -3.4416218635536300e-01  -3.4416447440135561e-01  -3.4416796038051894e-01  -3.4417285072092935e-01  -3.4417950614243525e-01  -3.4418846900390265e-01  -3.4420050357413406e-01  -3.4421665113086930e-01  -3.4423830234570563e-01  -3.4426728995870243e-01  -3.4430600526917793e-01  -3.4435754244415590e-01  -3.4442587503757705e-01  -3.4451606937356227e-01  -3.4463453951321926e-01  -3.4478934831863622e-01  -3.4499055855558308e-01  -3.4525063692833063e-01  -3.4558491229355914e-01  -3.4601208692680457e-01  -3.4655479649060950e-01  -3.4724021017892515e-01  -3.4810065734113393e-01  -3.4917426077028729e-01  -3.5050554997334094e-01  -3.5214602054266686e-01  -3.5415459891911139e-01  -3.5659796641417618e-01  -3.5955069371777032e-01  -3.6309513888545625e-01  -3.6732106963523931e-01  -3.7232498600659486e-01  -3.7820914251073395e-01  -3.8508029890568007e-01  -3.9304826295501505e-01  -4.0222432248419887e-01  -4.1271969204358716e-01  -4.2464411584405992e-01  -4.3810476928581993e-01  -4.5320558536781935e-01  -4.7004710228015839e-01  -3.4459446448637643e-01  -3.4459708183704790e-01  -3.4460085524815803e-01  -3.4460599159278216e-01  -3.4461285158857313e-01  -3.4462197693335034e-01  -3.4463413029396306e-01  -3.4465035004008260e-01  -3.4467202216565929e-01  -3.4470097238409803e-01  -3.4473958190350373e-01  -3.4479093086152535e-01  -3.4485897379058128e-01  -3.4494875174625578e-01  -3.4506664580300173e-01  -3.4522067642517029e-01  -3.4542085266505562e-01  -3.4567