<?xml version="1.0"?>
<VTKFile type="UnstructuredGrid"  version="0.1"  >
<UnstructuredGrid>
<Piece  NumberOfPoints="1681" NumberOfCells="3200">
<Points>
<DataArray  type="Float64"  NumberOfComponents="3"  format="ascii">0 0 0  0.5 0 0  1 0 0  1.5 0 0  2 0 0  2.5 0 0  3 0 0  3.5 0 0  4 0 0  4.5 0 0  5 0 0  5.5 0 0  6 0 0  6.5 0 0  7 0 0  7.5 0 0  8 0 0  8.5 0 0  9 0 0  9.5 0 0  10 0 0  10.5 0 0  11 0 0  11.5 0 0  12 0 0  12.5 0 0  13 0 0  13.5 0 0  14 0 0  14.5 0 0  15 0 0  15.5 0 0  16 0 0  16.5 0 0  17 0 0  17.5 0 0  18 0 0  18.5 0 0  19 0 0  19.5 0 0  20 0 0  0 0.5 0  0.5 0.5 0  1 0.5 0  1.5 0.5 0  2 0.5 0  2.5 0.5 0  3 0.5 0  3.5 0.5 0  4 0.5 0  4.5 0.5 0  5 0.5 0  5.5 0.5 0  6 0.5 0  6.5 0.5 0  7 0.5 0  7.5 0.5 0  8 0.5 0  8.5 0.5 0  9 0.5 0  9.5 0.5 0  10 0.5 0  10.5 0.5 0  11 0.5 0  11.5 0.5 0  12 0.5 0  12.5 0.5 0  13 0.5 0  13.5 0.5 0  14 0.5 0  14.5 0.5 0  15 0.5 0  15.5 0.5 0  16 0.5 0  16.5 0.5 0  17 0.5 0  17.5 0.5 0  18 0.5 0  18.5 0.5 0  19 0.5 0  19.5 0.5 0  20 0.5 0  0 1 0  0.5 1 0  1 1 0  1.5 1 0  2 1 0  2.5 1 0  3 1 0  3.5 1 0  4 1 0  4.5 1 0  5 1 0  5.5 1 0  6 1 0  6.5 1 0  7 1 0  7.5 1 0  8 1 0  8.5 1 0  9 1 0  9.5 1 0  10 1 0  10.5 1 0  11 1 0  11.5 1 0  12 1 0  12.5 1 0  13 1 0  13.5 1 0  14 1 0  14.5 1 0  15 1 0  15.5 1 0  16 1 0  16.5 1 0  17 1 0  17.5 1 0  18 1 0  18.5 1 0  19 1 0  19.5 1 0  20 1 0  0 1.5 0  0.5 1.5 0  1 1.5 0  1.5 1.5 0  2 1.5 0  2.5 1.5 0  3 1.5 0  3.5 1.5 0  4 1.5 0  4.5 1.5 0  5 1.5 0  5.5 1.5 0  6 1.5 0  6.5 1.5 0  7 1.5 0  7.5 1.5 0  8 1.5 0  8.5 1.5 0  9 1.5 0  9.5 1.5 0  10 1.5 0  10.5 1.5 0  11 1.5 0  11.5 1.5 0  12 1.5 0  12.5 1.5 0  13 1.5 0  13.5 1.5 0  14 1.5 0  14.5 1.5 0  15 1.5 0  15.5 1.5 0  16 1.5 0  16.5 1.5 0  17 1.5 0  17.5 1.5 0  18 1.5 0  18.5 1.5 0  19 1.5 0  19.5 1.5 0  20 1.5 0  0 2 0  0.5 2 0  1 2 0  1.5 2 0  2 2 0  2.5 2 0  3 2 0  3.5 2 0  4 2 0  4.5 2 0  5 2 0  5.5 2 0  6 2 0  6.5 2 0  7 2 0  7.5 2 0  8 2 0  8.5 2 0  9 2 0  9.5 2 0  10 2 0  10.5 2 0  11 2 0  11.5 2 0  12 2 0  12.5 2 0  13 2 0  13.5 2 0  14 2 0  14.5 2 0  15 2 0  15.5 2 0  16 2 0  16.5 2 0  17 2 0  17.5 2 0  18 2 0  18.5 2 0  19 2 0  19.5 2 0  20 2 0  0 2.5 0  0.5 2.5 0  1 2.5 0  1.5 2.5 0  2 2.5 0  2.5 2.5 0  3 2.5 0  3.5 2.5 0  4 2.5 0  4.5 2.5 0  5 2.5 0  5.5 2.5 0  6 2.5 0  6.5 2.5 0  7 2.5 0  7.5 2.5 0  8 2.5 0  8.5 2.5 0  9 2.5 0  9.5 2.5 0  10 2.5 0  10.5 2.5 0  11 2.5 0  11.5 2.5 0  12 2.5 0  12.5 2.5 0  13 2.5 0  13.5 2.5 0  14 2.5 0  14.5 2.5 0  15 2.5 0  15.5 2.5 0  16 2.5 0  16.5 2.5 0  17 2.5 0  17.5 2.5 0  18 2.5 0  18.5 2.5 0  19 2.5 0  19.5 2.5 0  20 2.5 0  0 3 0  0.5 3 0  1 3 0  1.5 3 0  2 3 0  2.5 3 0  3 3 0  3.5 3 0  4 3 0  4.5 3 0  5 3 0  5.5 3 0  6 3 0  6.5 3 0  7 3 0  7.5 3 0  8 3 0  8.5 3 0  9 3 0  9.5 3 0  10 3 0  10.5 3 0  11 3 0  11.5 3 0  12 3 0  12.5 3 0  13 3 0  13.5 3 0  14 3 0  14.5 3 0  15 3 0  15.5 3 0  16 3 0  16.5 3 0  17 3 0  17.5 3 0  18 3 0  18.5 3 0  19 3 0  19.5 3 0  20 3 0  0 3.5 0  0.5 3.5 0  1 3.5 0  1.5 3.5 0  2 3.5 0  2.5 3.5 0  3 3.5 0  3.5 3.5 0  4 3.5 0  4.5 3.5 0  5 3.5 0  5.5 3.5 0  6 3.5 0  6.5 3.5 0  7 3.5 0  7.5 3.5 0  8 3.5 0  8.5 3.5 0  9 3.5 0  9.5 3.5 0  10 3.5 0  10.5 3.5 0  11 3.5 0  11.5 3.5 0  12 3.5 0  12.5 3.5 0  13 3.5 0  13.5 3.5 0  14 3.5 0  14.5 3.5 0  15 3.5 0  15.5 3.5 0  16 3.5 0  16.5 3.5 0  17 3.5 0  17.5 3.5 0  18 3.5 0  18.5 3.5 0  19 3.5 0  19.5 3.5 0  20 3.5 0  0 4 0  0.5 4 0  1 4 0  1.5 4 0  2 4 0  2.5 4 0  3 4 0  3.5 4 0  4 4 0  4.5 4 0  5 4 0  5.5 4 0  6 4 0  6.5 4 0  7 4 0  7.5 4 0  8 4 0  8.5 4 0  9 4 0  9.5 4 0  10 4 0  10.5 4 0  11 4 0  11.5 4 0  12 4 0  12.5 4 0  13 4 0  13.5 4 0  14 4 0  14.5 4 0  15 4 0  15.5 4 0  16 4 0  16.5 4 0  17 4 0  17.5 4 0  18 4 0  18.5 4 0  19 4 0  19.5 4 0  20 4 0  0 4.5 0  0.5 4.5 0  1 4.5 0  1.5 4.5 0  2 4.5 0  2.5 4.5 0  3 4.5 0  3.5 4.5 0  4 4.5 0  4.5 4.5 0  5 4.5 0  5.5 4.5 0  6 4.5 0  6.5 4.5 0  7 4.5 0  7.5 4.5 0  8 4.5 0  8.5 4.5 0  9 4.5 0  9.5 4.5 0  10 4.5 0  10.5 4.5 0  11 4.5 0  11.5 4.5 0  12 4.5 0  12.5 4.5 0  13 4.5 0  13.5 4.5 0  14 4.5 0  14.5 4.5 0  15 4.5 0  15.5 4.5 0  16 4.5 0  16.5 4.5 0  17 4.5 0  17.5 4.5 0  18 4.5 0  18.5 4.5 0  19 4.5 0  19.5 4.5 0  20 4.5 0  0 5 0  0.5 5 0  1 5 0  1.5 5 0  2 5 0  2.5 5 0  3 5 0  3.5 5 0  4 5 0  4.5 5 0  5 5 0  5.5 5 0  6 5 0  6.5 5 0  7 5 0  7.5 5 0  8 5 0  8.5 5 0  9 5 0  9.5 5 0  10 5 0  10.5 5 0  11 5 0  11.5 5 0  12 5 0  12.5 5 0  13 5 0  13.5 5 0  14 5 0  14.5 5 0  15 5 0  15.5 5 0  16 5 0  16.5 5 0  17 5 0  17.5 5 0  18 5 0  18.5 5 0  19 5 0  19.5 5 0  20 5 0  0 5.5 0  0.5 5.5 0  1 5.5 0  1.5 5.5 0  2 5.5 0  2.5 5.5 0  3 5.5 0  3.5 5.5 0  4 5.5 0  4.5 5.5 0  5 5.5 0  5.5 5.5 0  6 5.5 0  6.5 5.5 0  7 5.5 0  7.5 5.5 0  8 5.5 0  8.5 5.5 0  9 5.5 0  9.5 5.5 0  10 5.5 0  10.5 5.5 0  11 5.5 0  11.5 5.5 0  12 5.5 0  12.5 5.5 0  13 5.5 0  13.5 5.5 0  14 5.5 0  14.5 5.5 0  15 5.5 0  15.5 5.5 0  16 5.5 0  16.5 5.5 0  17 5.5 0  17.5 5.5 0  18 5.5 0  18.5 5.5 0  19 5.5 0  19.5 5.5 0  20 5.5 0  0 6 0  0.5 6 0  1 6 0  1.5 6 0  2 6 0  2.5 6 0  3 6 0  3.5 6 0  4 6 0  4.5 6 0  5 6 0  5.5 6 0  6 6 0  6.5 6 0  7 6 0  7.5 6 0  8 6 0  8.5 6 0  9 6 0  9.5 6 0  10 6 0  10.5 6 0  11 6 0  11.5 6 0  12 6 0  12.5 6 0  13 6 0  13.5 6 0  14 6 0  14.5 6 0  15 6 0  15.5 6 0  16 6 0  16.5 6 0  17 6 0  17.5 6 0  18 6 0  18.5 6 0  19 6 0  19.5 6 0  20 6 0  0 6.5 0  0.5 6.5 0  1 6.5 0  1.5 6.5 0  2 6.5 0  2.5 6.5 0  3 6.5 0  3.5 6.5 0  4 6.5 0  4.5 6.5 0  5 6.5 0  5.5 6.5 0  6 6.5 0  6.5 6.5 0  7 6.5 0  7.5 6.5 0  8 6.5 0  8.5 6.5 0  9 6.5 0  9.5 6.5 0  10 6.5 0  10.5 6.5 0  11 6.5 0  11.5 6.5 0  12 6.5 0  12.5 6.5 0  13 6.5 0  13.5 6.5 0  14 6.5 0  14.5 6.5 0  15 6.5 0  15.5 6.5 0  16 6.5 0  16.5 6.5 0  17 6.5 0  17.5 6.5 0  18 6.5 0  18.5 6.5 0  19 6.5 0  19.5 6.5 0  20 6.5 0  0 7 0  0.5 7 0  1 7 0  1.5 7 0  2 7 0  2.5 7 0  3 7 0  3.5 7 0  4 7 0  4.5 7 0  5 7 0  5.5 7 0  6 7 0  6.5 7 0  7 7 0  7.5 7 0  8 7 0  8.5 7 0  9 7 0  9.5 7 0  10 7 0  10.5 7 0  11 7 0  11.5 7 0  12 7 0  12.5 7 0  13 7 0  13.5 7 0  14 7 0  14.5 7 0  15 7 0  15.5 7 0  16 7 0  16.5 7 0  17 7 0  17.5 7 0  18 7 0  18.5 7 0  19 7 0  19.5 7 0  20 7 0  0 7.5 0  0.5 7.5 0  1 7.5 0  1.5 7.5 0  2 7.5 0  2.5 7.5 0  3 7.5 0  3.5 7.5 0  4 7.5 0  4.5 7.5 0  5 7.5 0  5.5 7.5 0  6 7.5 0  6.5 7.5 0  7 7.5 0  7.5 7.5 0  8 7.5 0  8.5 7.5 0  9 7.5 0  9.5 7.5 0  10 7.5 0  10.5 7.5 0  11 7.5 0  11.5 7.5 0  12 7.5 0  12.5 7.5 0  13 7.5 0  13.5 7.5 0  14 7.5 0  14.5 7.5 0  15 7.5 0  15.5 7.5 0  16 7.5 0  16.5 7.5 0  17 7.5 0  17.5 7.5 0  18 7.5 0  18.5 7.5 0  19 7.5 0  19.5 7.5 0  20 7.5 0  0 8 0  0.5 8 0  1 8 0  1.5 8 0  2 8 0  2.5 8 0  3 8 0  3.5 8 0  4 8 0  4.5 8 0  5 8 0  5.5 8 0  6 8 0  6.5 8 0  7 8 0  7.5 8 0  8 8 0  8.5 8 0  9 8 0  9.5 8 0  10 8 0  10.5 8 0  11 8 0  11.5 8 0  12 8 0  12.5 8 0  13 8 0  13.5 8 0  14 8 0  14.5 8 0  15 8 0  15.5 8 0  16 8 0  16.5 8 0  17 8 0  17.5 8 0  18 8 0  18.5 8 0  19 8 0  19.5 8 0  20 8 0  0 8.5 0  0.5 8.5 0  1 8.5 0  1.5 8.5 0  2 8.5 0  2.5 8.5 0  3 8.5 0  3.5 8.5 0  4 8.5 0  4.5 8.5 0  5 8.5 0  5.5 8.5 0  6 8.5 0  6.5 8.5 0  7 8.5 0  7.5 8.5 0  8 8.5 0  8.5 8.5 0  9 8.5 0  9.5 8.5 0  10 8.5 0  10.5 8.5 0  11 8.5 0  11.5 8.5 0  12 8.5 0  12.5 8.5 0  13 8.5 0  13.5 8.5 0  14 8.5 0  14.5 8.5 0  15 8.5 0  15.5 8.5 0  16 8.5 0  16.5 8.5 0  17 8.5 0  17.5 8.5 0  18 8.5 0  18.5 8.5 0  19 8.5 0  19.5 8.5 0  20 8.5 0  0 9 0  0.5 9 0  1 9 0  1.5 9 0  2 9 0  2.5 9 0  3 9 0  3.5 9 0  4 9 0  4.5 9 0  5 9 0  5.5 9 0  6 9 0  6.5 9 0  7 9 0  7.5 9 0  8 9 0  8.5 9 0  9 9 0  9.5 9 0  10 9 0  10.5 9 0  11 9 0  11.5 9 0  12 9 0  12.5 9 0  13 9 0  13.5 9 0  14 9 0  14.5 9 0  15 9 0  15.5 9 0  16 9 0  16.5 9 0  17 9 0  17.5 9 0  18 9 0  18.5 9 0  19 9 0  19.5 9 0  20 9 0  0 9.5 0  0.5 9.5 0  1 9.5 0  1.5 9.5 0  2 9.5 0  2.5 9.5 0  3 9.5 0  3.5 9.5 0  4 9.5 0  4.5 9.5 0  5 9.5 0  5.5 9.5 0  6 9.5 0  6.5 9.5 0  7 9.5 0  7.5 9.5 0  8 9.5 0  8.5 9.5 0  9 9.5 0  9.5 9.5 0  10 9.5 0  10.5 9.5 0  11 9.5 0  11.5 9.5 0  12 9.5 0  12.5 9.5 0  13 9.5 0  13.5 9.5 0  14 9.5 0  14.5 9.5 0  15 9.5 0  15.5 9.5 0  16 9.5 0  16.5 9.5 0  17 9.5 0  17.5 9.5 0  18 9.5 0  18.5 9.5 0  19 9.5 0  19.5 9.5 0  20 9.5 0  0 10 0  0.5 10 0  1 10 0  1.5 10 0  2 10 0  2.5 10 0  3 10 0  3.5 10 0  4 10 0  4.5 10 0  5 10 0  5.5 10 0  6 10 0  6.5 10 0  7 10 0  7.5 10 0  8 10 0  8.5 10 0  9 10 0  9.5 10 0  10 10 0  10.5 10 0  11 10 0  11.5 10 0  12 10 0  12.5 10 0  13 10 0  13.5 10 0  14 10 0  14.5 10 0  15 10 0  15.5 10 0  16 10 0  16.5 10 0  17 10 0  17.5 10 0  18 10 0  18.5 10 0  19 10 0  19.5 10 0  20 10 0  0 10.5 0  0.5 10.5 0  1 10.5 0  1.5 10.5 0  2 10.5 0  2.5 10.5 0  3 10.5 0  3.5 10.5 0  4 10.5 0  4.5 10.5 0  5 10.5 0  5.5 10.5 0  6 10.5 0  6.5 10.5 0  7 10.5 0  7.5 10.5 0  8 10.5 0  8.5 10.5 0  9 10.5 0  9.5 10.5 0  10 10.5 0  10.5 10.5 0  11 10.5 0  11.5 10.5 0  12 10.5 0  12.5 10.5 0  13 10.5 0  13.5 10.5 0  14 10.5 0  14.5 10.5 0  15 10.5 0  15.5 10.5 0  16 10.5 0  16.5 10.5 0  17 10.5 0  17.5 10.5 0  18 10.5 0  18.5 10.5 0  19 10.5 0  19.5 10.5 0  20 10.5 0  0 11 0  0.5 11 0  1 11 0  1.5 11 0  2 11 0  2.5 11 0  3 11 0  3.5 11 0  4 11 0  4.5 11 0  5 11 0  5.5 11 0  6 11 0  6.5 11 0  7 11 0  7.5 11 0  8 11 0  8.5 11 0  9 11 0  9.5 11 0  10 11 0  10.5 11 0  11 11 0  11.5 11 0  12 11 0  12.5 11 0  13 11 0  13.5 11 0  14 11 0  14.5 11 0  15 11 0  15.5 11 0  16 11 0  16.5 11 0  17 11 0  17.5 11 0  18 11 0  18.5 11 0  19 11 0  19.5 11 0  20 11 0  0 11.5 0  0.5 11.5 0  1 11.5 0  1.5 11.5 0  2 11.5 0  2.5 11.5 0  3 11.5 0  3.5 11.5 0  4 11.5 0  4.5 11.5 0  5 11.5 0  5.5 11.5 0  6 11.5 0  6.5 11.5 0  7 11.5 0  7.5 11.5 0  8 11.5 0  8.5 11.5 0  9 11.5 0  9.5 11.5 0  10 11.5 0  10.5 11.5 0  11 11.5 0  11.5 11.5 0  12 11.5 0  12.5 11.5 0  13 11.5 0  13.5 11.5 0  14 11.5 0  14.5 11.5 0  15 11.5 0  15.5 11.5 0  16 11.5 0  16.5 11.5 0  17 11.5 0  17.5 11.5 0  18 11.5 0  18.5 11.5 0  19 11.5 0  19.5 11.5 0  20 11.5 0  0 12 0  0.5 12 0  1 12 0  1.5 12 0  2 12 0  2.5 12 0  3 12 0  3.5 12 0  4 12 0  4.5 12 0  5 12 0  5.5 12 0  6 12 0  6.5 12 0  7 12 0  7.5 12 0  8 12 0  8.5 12 0  9 12 0  9.5 12 0  10 12 0  10.5 12 0  11 12 0  11.5 12 0  12 12 0  12.5 12 0  13 12 0  13.5 12 0  14 12 0  14.5 12 0  
[...]
<PointData  Scalars="f_5623-1"> 
<DataArray  type="Float64"  Name="f_5623-1"  format="ascii">-3.4277106543375035e-01  -3.4277285555744230e-01  -3.4277720751106960e-01  -3.4278464595818914e-01  -3.4279583755055454e-01  -3.4281171712460801e-01  -3.4283356543387444e-01  -3.4286309038495799e-01  -3.4290252551809441e-01  -3.4295475134853637e-01  -3.4302344347702002e-01  -3.4311325106117269e-01  -3.4323000915197732e-01  -3.4338098821409635e-01  -3.4357518372800644e-01  -3.4382364801826082e-01  -3.4413986527445506e-01  -3.4454016903829932e-01  -3.4504419913455103e-01  -3.4567539205378206e-01  -3.4646149511279922e-01  -3.4743509034534287e-01  -3.4863410912707832e-01  -3.5010231326696539e-01  -3.5188971313521739e-01  -3.5405288899840576e-01  -3.5665517897896643e-01  -3.5976669703072828e-01  -3.6346414819307526e-01  -3.6783041720575488e-01  -3.7295392096961133e-01  -3.7892773519220035e-01  -3.8584852964690686e-01  -3.9381537237565517e-01  -4.0292848746133392e-01  -4.1328806998230100e-01  -4.2499327279726412e-01  -4.3814148380610857e-01  -4.5282801942931045e-01  -4.6914640524544837e-01  -4.8718959324588262e-01  -3.4277285555744230e-01  -3.4277434224559467e-01  -3.4277863754529020e-01  -3.4278607854650250e-01  -3.4279729119466446e-01  -3.4281320145340050e-01  -3.4283508878282298e-01  -3.4286466192048182e-01  -3.4290415602594121e-01  -3.4295645365693295e-01  -3.4302523276048114e-01  -3.4311514508599916e-01  -3.4323202846938605e-01  -3.4338315628597094e-01  -3.4357752695923299e-01  -3.4382619566193484e-01  -3.4414264917022963e-01  -3.4454322313974095e-01  -3.4504755877933946e-01  -3.4567909293223326e-01  -3.4646557189733640e-01  -3.4743957495842887e-01  -3.4863902865024288e-01  -3.5010768753119709e-01  -3.5189555208447570e-01  -3.5405918998257818e-01  -3.5666192420594373e-01  -3.5977385148008956e-01  -3.6347165835092593e-01  -3.6783821100073300e-01  -3.7296190924974010e-01  -3.7893581495688194e-01  -3.8585658901484282e-01  -3.9382329689387680e-01  -4.0293616673955013e-01  -4.1329540238225221e-01  -4.2500016257450079e-01  -4.3814781440419409e-01  -4.5283354942418352e-01  -4.6915040275373893e-01  -4.8718959324588262e-01  -3.4277720751106966e-01  -3.4277863754529020e-01  -3.4278290681354184e-01  -3.4279035007231018e-01  -3.4280158160923557e-01  -3.4281752163983953e-01  -3.4283944780838321e-01  -3.4286906896722802e-01  -3.4290862134261624e-01  -3.4296098907936434e-01  -3.4302985203043246e-01  -3.4311986405345002e-01  -3.4323686520041491e-01  -3.4338813106964078e-01  -3.4358266219214234e-01  -3.4383151558073927e-01  -3.4414817939782666e-01  -3.4454899000946115e-01  -3.4505358840390044e-01  -3.4568540999147168e-01  -3.4647219813221564e-01  -3.4744652738000054e-01  -3.4864631750234287e-01  -3.5011531408516167e-01  -3.5190350639207080e-01  -3.5406744876626889e-01  -3.5667044911682932e-01  -3.5978258799237567e-01  -3.6348053557238330e-01  -3.6784714264216617e-01  -3.7297079589170512e-01  -3.7894454755586687e-01  -3.8586505327569121e-01  -3.9383137765004267e-01  -4.0294375070914040e-01  -4.1330237632140465e-01  -4.2500640134629381e-01  -4.3815314907008301e-01  -4.5283770035514020e-01  -4.6915287128082261e-01  -4.8718959324588262e-01  -3.4278464595818914e-01  -3.4278607854650250e-01  -3.4279035007231018e-01  -3.4279780597627141e-01  -3.4280906047253773e-01  -3.4282503234670247e-01  -3.4284699861268775e-01  -3.4287666837827518e-01  -3.4291627875250713e-01  -3.4296871516628125e-01  -3.4303765900305816e-01  -3.4312776577225018e-01  -3.4324487718381025e-01  -3.4339627037469861e-01  -3.4359094714816624e-01  -3.4383996534785893e-01  -3.4415681332046361e-01  -3.4455782673640173e-01  -3.4506264475330395e-01  -3.4569469955144705e-01  -3.4648172960666457e-01  -3.4745630271606959e-01  -3.4865632987024725e-01  -3.5012554582238464e-01  -3.5191392706924296e-01  -3.5407801357610902e-01  -3.5668109782199264e-01  -3.5979324468115848e-01  -3.6349110944832203e-01  -3.6785752999838056e-01  -3.7298088327755241e-01  -3.7895421591871825e-01  -3.8587418254404721e-01  -3.9383985080681816e-01  -4.0295145587956133e-01  -4.1330920479558297e-01  -4.2501223897636747e-01  -4.3815785896214049e-01  -4.5284109870085576e-01  -4.6915471068714987e-01  -4.8718959324588262e-01  -3.4279583755055454e-01  -3.4279729119466446e-01  -3.4280158160923557e-01  -3.4280906047253773e-01  -3.4282034405329687e-01  -3.4283635161068204e-01  -3.4285836044432894e-01  -3.4288808020199046e-01  -3.4292774883528049e-01  -3.4298025284694472e-01  -3.4304927481849296e-01  -3.4313947147064316e-01  -3.4325668561265343e-01  -3.4340819522430599e-01  -3.4360300252567555e-01  -3.4385216515371608e-01  -3.4416917040008727e-01  -3.4457035178491385e-01  -3.4507534496184206e-01  -3.4570757700064497e-01  -3.4649477943721929e-01  -3.4746951113822133e-01  -3.4866967211288352e-01  -3.5013898416625672e-01  -3.5192740915332371e-01  -3.5409147120471796e-01  -3.5669444652338794e-01  -3.5980638426367229e-01  -3.6350392575409751e-01  -3.6786989795427649e-01  -3.7299267117857171e-01  -3.7896529065000378e-01  -3.8588441516436345e-01  -3.9384912161044539e-01  -4.0295965779010068e-01  -4.1331624385968929e-01  -4.2501803109432690e-01  -4.3816232332126048e-01  -4.5284415135969769e-01  -4.6915626680118500e-01  -4.8718959324588262e-01  -3.4281171712460806e-01  -3.4281320145340050e-01  -3.4281752163983953e-01  -3.4282503234670253e-01  -3.4283635161068204e-01  -3.4285239964224296e-01  -3.4287445441777303e-01  -3.4290422627660944e-01  -3.4294395396311167e-01  -3.4299652485112669e-01  -3.4306562239463206e-01  -3.4315590407912827e-01  -3.4327321323527266e-01  -3.4342482795767076e-01  -3.4361974998220252e-01  -3.4386903564099053e-01  -3.4418616985302175e-01  -3.4458748243358106e-01  -3.4509260373242845e-01  -3.4572495366871470e-01  -3.4651225458208068e-01  -3.4748705398461271e-01  -3.4868723839020510e-01  -3.5015651416321270e-01  -3.5194482619186818e-01  -3.5410868079370994e-01  -3.5671133646876180e-01  -3.5982282599557719e-01  -3.6351977706931871e-01  -3.6788500725376283e-01  -3.7300688310108709e-01  -3.7897845277152592e-01  -3.8589638517403241e-01  -3.9385977413645173e-01  -4.0296888991250440e-01  -4.1332397842896651e-01  -4.2502421742691787e-01  -4.3816693581811567e-01  -4.5284718815134090e-01  -4.6915775259321307e-01  -4.8718959324588262e-01  -3.4283356543387444e-01  -3.4283508878282304e-01  -3.4283944780838321e-01  -3.4284699861268780e-01  -3.4285836044432894e-01  -3.4287445441777303e-01  -3.4289655924665208e-01  -3.4292638595898861e-01  -3.4296617397842294e-01  -3.4301881131943907e-01  -3.4308798195899159e-01  -3.4317834367037281e-01  -3.4329573968505883e-01  -3.4344744742617339e-01  -3.4364246716729147e-01  -3.4389185273800288e-01  -3.4420908524038996e-01  -3.4461048907115199e-01  -3.4511568727775366e-01  -3.4574809034306125e-01  -3.4653540885303574e-01  -3.4751017617564084e-01  -3.4871026237766795e-01  -3.5017935537447697e-01  -3.5196738016801987e-01  -3.5413082261802309e-01  -3.5673292137572249e-01  -3.5984369145148498e-01  -3.6353974654114146e-01  -3.6790389574860127e-01  -3.7302450436322282e-01  -3.7899462778012144e-01  -3.8591095132305697e-01  -3.9387259425138760e-01  -4.0297986013729897e-01  -4.1333303408304162e-01  -4.2503133625633832e-01  -4.3817213867443106e-01  -4.5285053798589475e-01  -4.6915935365674810e-01  -4.8718959324588262e-01  -3.4286309038495799e-01  -3.4286466192048182e-01  -3.4286906896722802e-01  -3.4287666837827518e-01  -3.4288808020199046e-01  -3.4290422627660944e-01  -3.4292638595898867e-01  -3.4295627085453601e-01  -3.4299612088399473e-01  -3.4304882442254103e-01  -3.4311806557393848e-01  -3.4320850186773111e-01  -3.4332597574615481e-01  -3.4347776308465738e-01  -3.4367286160089411e-01  -3.4392232127746147e-01  -3.4423961777084194e-01  -3.4464106811582251e-01  -3.4514628577608286e-01  -3.4577866916680156e-01  -3.4656591414492688e-01  -3.4754053664561180e-01  -3.4874038674904612e-01  -3.5020913023310246e-01  -3.5199666852334616e-01  -3.5415946352702204e-01  -3.5676073099461242e-01  -3.5987046585214250e-01  -3.6356526654435783e-01  -3.6792793387529910e-01  -3.7304683378690900e-01  -3.7901503289330074e-01  -3.8592923923961342e-01  -3.9388860630726741e-01  -4.0299348228723525e-01  -4.1334420508490211e-01  -4.2504005272975159e-01  -4.3817845651880577e-01  -4.5285457019228365e-01  -4.6916126510640677e-01  -4.8718959324588262e-01  -3.4290252551809441e-01  -3.4290415602594126e-01  -3.4290862134261624e-01  -3.4291627875250713e-01  -3.4292774883528049e-01  -3.4294395396311173e-01  -3.4296617397842294e-01  -3.4299612088399473e-01  -3.4303603485329370e-01  -3.4308880428234106e-01  -3.4315811293981002e-01  -3.4324861750047647e-01  -3.4336615882697186e-01  -3.4351801024304573e-01  -3.4371316565457416e-01  -3.4396266964850786e-01  -3.4427999055247710e-01  -3.4468143578170696e-01  -3.4518660655023231e-01  -3.4581888610887090e-01  -3.4660595205324751e-01  -3.4758029893854914e-01  -3.4877975255162463e-01  -3.5024795196554986e-01  -3.5203477035321079e-01  -3.5419664109526727e-01  -3.5679675284380497e-01  -3.5990507695471591e-01  -3.6359819423472706e-01  -3.6795889631980244e-01  -3.7307555087862093e-01  -3.7904123914862498e-01  -3.8595269793330544e-01  -3.9390912376385795e-01  -4.0301092101312469e-01  -4.1335849433800209e-01  -4.2505119522365836e-01  -4.3818653024937970e-01  -4.5285972480381487e-01  -4.6916371264076662e-01  -4.8718959324588262e-01  -3.4295475134853637e-01  -3.4295645365693295e-01  -3.4296098907936434e-01  -3.4296871516628125e-01  -3.4298025284694472e-01  -3.4299652485112669e-01  -3.4301881131943907e-01  -3.4304882442254103e-01  -3.4308880428234106e-01  -3.4314163890534111e-01  -3.4321101117735164e-01  -3.4330157619963358e-01  -3.4341917232803248e-01  -3.4357106915684660e-01  -3.4376625530509580e-01  -3.4401576814120494e-01  -3.4433306644086709e-01  -3.4473444532501468e-01  -3.4523949058535630e-01  -3.4587156660223523e-01  -3.4665832845309613e-01  -3.4763224451546282e-01  -3.4883111099195285e-01  -3.5029853456366700e-01  -3.5208435422502582e-01  -3.5424496889421070e-01  -3.5684353448470529e-01  -3.5994999382115028e-01  -3.6364090624242668e-01  -3.6799905201811195e-01  -3.7311280049008083e-01  -3.7907525008641485e-01  -3.8598317193150822e-01  -3.9393581436099678e-01  -4.0303364981377821e-01  -4.1337716430902022e-01  -4.2506579931047078e-01  -4.3819715383636193e-01  -4.5286654094809436e-01  -4.6916696946950531e-01  -4.8718959324588262e-01  -3.4302344347702002e-01  -3.4302523276048114e-01  -3.4302985203043246e-01  -3.4303765900305822e-01  -3.4304927481849301e-01  -3.4306562239463206e-01  -3.4308798195899159e-01  -3.4311806557393848e-01  -3.4315811293981002e-01  -3.4321101117735164e-01  -3.4328044163124360e-01  -3.4337105696875619e-01  -3.4348869193074477e-01  -3.4364061097470011e-01  -3.4383579566900524e-01  -3.4408527398106786e-01  -3.4440249246793875e-01  -3.4480373073962767e-01  -3.4530855533755372e-01  -3.4594030728147995e-01  -3.4672661394654358e-01  -3.4769991165198083e-01  -3.4889796047848676e-01  -3.5036432761579078e-01  -3.5214881038459067e-01  -3.5430776559916705e-01  -3.5690430899010500e-01  -3.6000834804338833e-01  -3.6369641498802036e-01  -3.6805127484546724e-01  -3.7316129713081042e-01  -3.7911959893335462e-01  -3.8602299061895939e-01  -3.9397078097872473e-01  -4.0306352288756742e-01  -4.1340179942786981e-01  -4.2508516024739407e-01  -4.3821131622178822e-01  -4.5287568698447589e-01  -4.6917137273952320e-01  -4.8718959324588262e-01  -3.4311325106117269e-01  -3.4311514508599916e-01  -3.4311986405345002e-01  -3.4312776577225018e-01  -3.4313947147064316e-01  -3.4315590407912827e-01  -3.4317834367037287e-01  -3.4320850186773116e-01  -3.4324861750047647e-01  -3.4330157619963358e-01  -3.4337105696875619e-01  -3.4346170899709699e-01  -3.4357936206733986e-01  -3.4373127379514234e-01  -3.4392641656120571e-01  -3.4417580628603567e-01  -3.4449287407173151e-01  -3.4489388010754668e-01  -3.4539836702161275e-01  -3.4602964698786104e-01  -3.4681531332261945e-01  -3.4778776304237763e-01  -3.4898471200388226e-01  -3.5044967904034308e-01  -3.5223241034698016e-01  -3.5438921087160064e-01  -3.5698314647708201e-01  -3.6008408021108396e-01  -3.6376850929823629e-01  -3.6811917753211504e-01  -3.7322445129077525e-01  -3.7917746641684585e-01  -3.8607507663404728e-01  -3.9401665973699873e-01  -4.0310286210201313e-01  -4.1343438112658487e-01  -4.2511089526841767e-01  -4.3823024994700538e-01  -4.5288799434199473e-01  -4.6917734118772397e-01  -4.8718959324588262e-01  -3.4323000915197738e-01  -3.4323202846938605e-01  -3.4323686520041496e-01  -3.4324487718381025e-01  -3.4325668561265343e-01  -3.4327321323527271e-01  -3.4329573968505889e-01  -3.4332597574615487e-01  -3.4336615882697191e-01  -3.4341917232803248e-01  -3.4348869193074477e-01  -3.4357936206733986e-01  -3.4369700591843066e-01  -3.4384887217254545e-01  -3.4404392140999301e-01  -3.4429315426960538e-01  -3.4460998244046065e-01  -3.4501064190545178e-01  -3.4551464566465284e-01  -3.4614527031129516e-01  -3.4693006727872466e-01  -3.4790138533399911e-01  -3.4909688606105926e-01  -3.5056002887984311e-01  -3.5234049698574821e-01  -3.5449453107617146e-01  -3.5708513469645375e-01  -3.6018211452943066e-01  -3.6386192212305823e-01  -3.6820727147396048e-01  -3.7330652027629968e-01  -3.7925282151443124e-01  -3.8614307539894843e-01  -3.9407673717463959e-01  -4.0315456070656336e-01  -4.1347737699234255e-01  -4.2514501709507641e-01  -4.3825548792717972e-01  -4.5290449643254804e-01  -4.6918539506742424e-01  -4.8718959324588262e-01  -3.4338098821409635e-01  -3.4338315628597099e-01  -3.4338813106964078e-01  -3.4339627037469861e-01  -3.4340819522430605e-01  -3.4342482795767076e-01  -3.4344744742617345e-01  -3.4347776308465738e-01  -3.4351801024304573e-01  -3.4357106915684660e-01  -3.4364061097470011e-01  -3.4373127379514234e-01  -3.4384887217254545e-01  -3.4400064330317848e-01  -3.4419553275544024e-01  -3.4444452191214586e-01  -3.4476099818699807e-01  -3.4516116747629183e-01  -3.4566450612577121e-01  -3.4629424685857657e-01  -3.4707788957939362e-01  -3.4804772375140414e-01  -3.4924134423156300e-01  -3.5070213726762162e-01  -3.5247970819935620e-01  -3.5463021786873111e-01  -3.5721659166009501e-01  -3.6030856449794013e-01  -3.6398252817499760e-01  -3.6832115514562247e-01  -3.7341278612713419e-01  -3.7935058753989126e-01  -3.8623150799652767e-01  -3.9415508851967851e-01  -4.0322220560352334e-01  -4.1353384567134027e-01  -4.2519002014779939e-01  -4.3828892970284350e-01  -4.5292647375986184e-01  -4.6919617907913369e-01  -4.8718959324588262e-01  -3.4357518372800644e-01  -3.4357752695923299e-01  -3.4358266219214234e-01  -3.4359094714816624e-01  -3.4360300252567555e-01  -3.4361974998220257e-01  -3.4364246716729147e-01  -3.4367286160089416e-01  -3.4371316565457416e-01  -3.4376625530509586e-01  -3.4383579566900524e-01  -3.4392641656120571e-01  -3.4404392140999301e-01  -3.4419553275544024e-01  -3.4439017719688730e-01  -3.4463881196779722e-01  -3.4495479422270464e-01  -3.4535429253614897e-01  -3.4585673795289607e-01  -3.4648530911940822e-01  -3.4726744252347957e-01  -3.4823535467936523e-01  -3.4942655831125519e-01  -3.5088434942486113e-01  -3.5265823700018462e-01  -3.5480428248141171e-01  -3.5738531310342075e-01  -3.6047097240577414e-01  -3.6413757418800186e-01  -3.6846773373517872e-01  -3.7354976313290927e-01  -3.7947683595904552e-01  -3.8634594963888552e-01  -3.9425673912882869e-01  -4.0331022007427947e-01  -4.1360755923078585e-01  -4.2524898096367730e-01  -4.3833291844624961e-01  -4.5295550621166392e-01  -4.6921048888201655e-01  -4.8718959324588262e-01  -3.4382364801826082e-01  -3.4382619566193484e-01  -3.4383151558073927e-01  -3.4383996534785893e-01  -3.4385216515371603e-01  -3.4386903564099053e-01  -3.4389185273800288e-01  -3.4392232127746147e-01  -3.4396266964850786e-01  -3.4401576814120494e-01  -3.4408527398106786e-01  -3.4417580628603567e-01  -3.4429315426960538e-01  -3.4444452191214586e-01  -3.4463881196779722e-01  -3.4488695149676668e-01  -3.4520226003328769e-01  -3.4560085993338796e-01  -3.4610212630982373e-01  -3.4672917118094193e-01  -3.4750935298994379e-01  -3.4847479849602236e-01  -3.4966291928695942e-01  -3.5111690002435170e-01  -3.5288613038444100e-01  -3.5502654808231060e-01  -3.5760085717442630e-01  -3.6067858504034800e-01  -3.6433594418564003e-01  -3.6865547236662616e-01  -3.7372543727081925e-01  -3.7963901018897711e-01  -3.8649323588688139e-01  -3.9438785113357139e-01  -4.0342402884835210e-01  -4.1370314468691183e-01  -4.2532567431453805e-01  -4.3839032995723293e-01  -4.5299353344637000e-01  -4.6922930168691823e-01  -4.8718959324588262e-01  -3.4413986527445506e-01  -3.4414264917022963e-01  -3.4414817939782660e-01  -3.4415681332046355e-01  -3.4416917040008727e-01  -3.4418616985302175e-01  -3.4420908524038996e-01  -3.4423961777084194e-01  -3.4427999055247710e-01  -3.4433306644086709e-01  -3.4440249246793875e-01  -3.4449287407173146e-01  -3.4460998244046059e-01  -3.4476099818699807e-01  -3.4495479422270464e-01  -3.4520226003328769e-01  -3.4551666849590174e-01  -3.4591408483221536e-01  -3.4641381518302572e-01  -3.4703888954304229e-01  -3.4781657036283820e-01  -3.4877887401133478e-01  -3.4996308758011879e-01  -3.5141225840406570e-01  -3.5317562853842599e-01  -3.5530898184133830e-01  -3.5787486805820623e-01  -3.6094266739322667e-01  -3.6458846161090963e-01  -3.6889468481852339e-01  -3.7394953951088278e-01  -3.7984618134033188e-01  -3.8668169856278301e-01  -3.9455593718080817e-01  -4.0357024730681607e-01  -4.1382624634647952e-01  -4.2542470647508684e-01  -4.3846467483978174e-01  -4.5304292423806697e-01  -4.6925381139415884e-01  -4.8718959324588262e-01  -3.4454016903829932e-01  -3.4454322313974101e-01  -3.4454899000946115e-01  -3.4455782673640173e-01  -3.4457035178491385e-01  -3.4458748243358106e-01  -3.4461048907115199e-01  -3.4464106811582251e-01  -3.4468143578170696e-01  -3.4473444532501463e-01  -3.4480373073962761e-01  -3.4489388010754662e-01  -3.4501064190545178e-01  -3.4516116747629183e-01  -3.4535429253614897e-01  -3.4560085993338802e-01  -3.4591408483221536e-01  -3.4630996197334019e-01  -3.4680771258749854e-01  -3.4743026583007169e-01  -3.4820476621910523e-01  -3.4916309449487015e-01  -3.5034238465556550e-01  -3.5178551485695064e-01  -3.5354154475000321e-01  -3.5566606722657601e-01  -3.5822143922749683e-01  -3.6127685522686304e-01  -3.6490822935544642e-01  -3.6919785894475787e-01  -3.7423385434792555e-01  -3.8010933738994518e-01  -3.8692143293539588e-01  -3.9477010289246567e-01  -4.0375689643190965e-01  -4.1398371049413063e-01  -4.2555166701966324e-01  -4.3856021500480952e-01  -4.5310655561198443e-01  -4.6928546872068139e-01  -4.8718959324588262e-01  -3.4504419913455103e-01  -3.4504755877933951e-01  -3.4505358840390049e-01  -3.4506264475330395e-01  -3.4507534496184206e-01  -3.4509260373242845e-01  -3.4511568727775366e-01  -3.4514628577608286e-01  -3.4518660655023231e-01  -3.4523949058535630e-01  -3.4530855533755372e-01  -3.4539836702161275e-01  -3.4551464566465284e-01  -3.4566450612577121e-01  -3.4585673795289601e-01  -3.4610212630982373e-01  -3.4641381518302572e-01  -3.4680771258749854e-01  -3.4730293545160612e-01  -3.4792228919962465e-01  -3.4869277371883600e-01  -3.4964610339298346e-01  -3.5081922427933404e-01  -3.5225480649003121e-01  -3.5400168475376442e-01  -3.5611521552096659e-01  -3.5865751559426295e-01  -3.6169754608197319e-01  -3.6531100758537610e-01  -3.6958001901504084e-01  -3.7459256408859237e-01  -3.8044170659807058e-01  -3.8722459723630714e-01  -3.9504131928786296e-01  -4.0399364485578299e-01  -4.1418379379723019e-01  -4.2571330043733713e-01  -4.3868209560218208e-01  -4.5318790258571867e-01  -4.6932602675611546e-01  -4.8718959324588262e-01  -3.4567539205378206e-01  -3.4567909293223326e-01  -3.4568540999147168e-01  -3.4569469955144705e-01  -3.4570757700064497e-01  -3.4572495366871470e-01  -3.4574809034306125e-01  -3.4577866916680156e-01  -3.4581888610887085e-01  -3.4587156660223523e-01  -3.4594030728147995e-01  -3.4602964698786104e-01  -3.4614527031129522e-01  -3.4629424685857657e-01  -3.4648530911940822e-01  -3.4672917118094193e-01  -3.4703888954304229e-01  -3.4743