<?xml version="1.0"?>
<VTKFile type="UnstructuredGrid"  version="0.1"  >
<UnstructuredGrid>
<Piece  NumberOfPoints="1681" NumberOfCells="3200">
<Points>
<DataArray  type="Float64"  NumberOfComponents="3"  format="ascii">0 0 0  0.5 0 0  1 0 0  1.5 0 0  2 0 0  2.5 0 0  3 0 0  3.5 0 0  4 0 0  4.5 0 0  5 0 0  5.5 0 0  6 0 0  6.5 0 0  7 0 0  7.5 0 0  8 0 0  8.5 0 0  9 0 0  9.5 0 0  10 0 0  10.5 0 0  11 0 0  11.5 0 0  12 0 0  12.5 0 0  13 0 0  13.5 0 0  14 0 0  14.5 0 0  15 0 0  15.5 0 0  16 0 0  16.5 0 0  17 0 0  17.5 0 0  18 0 0  18.5 0 0  19 0 0  19.5 0 0  20 0 0  0 0.5 0  0.5 0.5 0  1 0.5 0  1.5 0.5 0  2 0.5 0  2.5 0.5 0  3 0.5 0  3.5 0.5 0  4 0.5 0  4.5 0.5 0  5 0.5 0  5.5 0.5 0  6 0.5 0  6.5 0.5 0  7 0.5 0  7.5 0.5 0  8 0.5 0  8.5 0.5 0  9 0.5 0  9.5 0.5 0  10 0.5 0  10.5 0.5 0  11 0.5 0  11.5 0.5 0  12 0.5 0  12.5 0.5 0  13 0.5 0  13.5 0.5 0  14 0.5 0  14.5 0.5 0  15 0.5 0  15.5 0.5 0  16 0.5 0  16.5 0.5 0  17 0.5 0  17.5 0.5 0  18 0.5 0  18.5 0.5 0  19 0.5 0  19.5 0.5 0  20 0.5 0  0 1 0  0.5 1 0  1 1 0  1.5 1 0  2 1 0  2.5 1 0  3 1 0  3.5 1 0  4 1 0  4.5 1 0  5 1 0  5.5 1 0  6 1 0  6.5 1 0  7 1 0  7.5 1 0  8 1 0  8.5 1 0  9 1 0  9.5 1 0  10 1 0  10.5 1 0  11 1 0  11.5 1 0  12 1 0  12.5 1 0  13 1 0  13.5 1 0  14 1 0  14.5 1 0  15 1 0  15.5 1 0  16 1 0  16.5 1 0  17 1 0  17.5 1 0  18 1 0  18.5 1 0  19 1 0  19.5 1 0  20 1 0  0 1.5 0  0.5 1.5 0  1 1.5 0  1.5 1.5 0  2 1.5 0  2.5 1.5 0  3 1.5 0  3.5 1.5 0  4 1.5 0  4.5 1.5 0  5 1.5 0  5.5 1.5 0  6 1.5 0  6.5 1.5 0  7 1.5 0  7.5 1.5 0  8 1.5 0  8.5 1.5 0  9 1.5 0  9.5 1.5 0  10 1.5 0  10.5 1.5 0  11 1.5 0  11.5 1.5 0  12 1.5 0  12.5 1.5 0  13 1.5 0  13.5 1.5 0  14 1.5 0  14.5 1.5 0  15 1.5 0  15.5 1.5 0  16 1.5 0  16.5 1.5 0  17 1.5 0  17.5 1.5 0  18 1.5 0  18.5 1.5 0  19 1.5 0  19.5 1.5 0  20 1.5 0  0 2 0  0.5 2 0  1 2 0  1.5 2 0  2 2 0  2.5 2 0  3 2 0  3.5 2 0  4 2 0  4.5 2 0  5 2 0  5.5 2 0  6 2 0  6.5 2 0  7 2 0  7.5 2 0  8 2 0  8.5 2 0  9 2 0  9.5 2 0  10 2 0  10.5 2 0  11 2 0  11.5 2 0  12 2 0  12.5 2 0  13 2 0  13.5 2 0  14 2 0  14.5 2 0  15 2 0  15.5 2 0  16 2 0  16.5 2 0  17 2 0  17.5 2 0  18 2 0  18.5 2 0  19 2 0  19.5 2 0  20 2 0  0 2.5 0  0.5 2.5 0  1 2.5 0  1.5 2.5 0  2 2.5 0  2.5 2.5 0  3 2.5 0  3.5 2.5 0  4 2.5 0  4.5 2.5 0  5 2.5 0  5.5 2.5 0  6 2.5 0  6.5 2.5 0  7 2.5 0  7.5 2.5 0  8 2.5 0  8.5 2.5 0  9 2.5 0  9.5 2.5 0  10 2.5 0  10.5 2.5 0  11 2.5 0  11.5 2.5 0  12 2.5 0  12.5 2.5 0  13 2.5 0  13.5 2.5 0  14 2.5 0  14.5 2.5 0  15 2.5 0  15.5 2.5 0  16 2.5 0  16.5 2.5 0  17 2.5 0  17.5 2.5 0  18 2.5 0  18.5 2.5 0  19 2.5 0  19.5 2.5 0  20 2.5 0  0 3 0  0.5 3 0  1 3 0  1.5 3 0  2 3 0  2.5 3 0  3 3 0  3.5 3 0  4 3 0  4.5 3 0  5 3 0  5.5 3 0  6 3 0  6.5 3 0  7 3 0  7.5 3 0  8 3 0  8.5 3 0  9 3 0  9.5 3 0  10 3 0  10.5 3 0  11 3 0  11.5 3 0  12 3 0  12.5 3 0  13 3 0  13.5 3 0  14 3 0  14.5 3 0  15 3 0  15.5 3 0  16 3 0  16.5 3 0  17 3 0  17.5 3 0  18 3 0  18.5 3 0  19 3 0  19.5 3 0  20 3 0  0 3.5 0  0.5 3.5 0  1 3.5 0  1.5 3.5 0  2 3.5 0  2.5 3.5 0  3 3.5 0  3.5 3.5 0  4 3.5 0  4.5 3.5 0  5 3.5 0  5.5 3.5 0  6 3.5 0  6.5 3.5 0  7 3.5 0  7.5 3.5 0  8 3.5 0  8.5 3.5 0  9 3.5 0  9.5 3.5 0  10 3.5 0  10.5 3.5 0  11 3.5 0  11.5 3.5 0  12 3.5 0  12.5 3.5 0  13 3.5 0  13.5 3.5 0  14 3.5 0  14.5 3.5 0  15 3.5 0  15.5 3.5 0  16 3.5 0  16.5 3.5 0  17 3.5 0  17.5 3.5 0  18 3.5 0  18.5 3.5 0  19 3.5 0  19.5 3.5 0  20 3.5 0  0 4 0  0.5 4 0  1 4 0  1.5 4 0  2 4 0  2.5 4 0  3 4 0  3.5 4 0  4 4 0  4.5 4 0  5 4 0  5.5 4 0  6 4 0  6.5 4 0  7 4 0  7.5 4 0  8 4 0  8.5 4 0  9 4 0  9.5 4 0  10 4 0  10.5 4 0  11 4 0  11.5 4 0  12 4 0  12.5 4 0  13 4 0  13.5 4 0  14 4 0  14.5 4 0  15 4 0  15.5 4 0  16 4 0  16.5 4 0  17 4 0  17.5 4 0  18 4 0  18.5 4 0  19 4 0  19.5 4 0  20 4 0  0 4.5 0  0.5 4.5 0  1 4.5 0  1.5 4.5 0  2 4.5 0  2.5 4.5 0  3 4.5 0  3.5 4.5 0  4 4.5 0  4.5 4.5 0  5 4.5 0  5.5 4.5 0  6 4.5 0  6.5 4.5 0  7 4.5 0  7.5 4.5 0  8 4.5 0  8.5 4.5 0  9 4.5 0  9.5 4.5 0  10 4.5 0  10.5 4.5 0  11 4.5 0  11.5 4.5 0  12 4.5 0  12.5 4.5 0  13 4.5 0  13.5 4.5 0  14 4.5 0  14.5 4.5 0  15 4.5 0  15.5 4.5 0  16 4.5 0  16.5 4.5 0  17 4.5 0  17.5 4.5 0  18 4.5 0  18.5 4.5 0  19 4.5 0  19.5 4.5 0  20 4.5 0  0 5 0  0.5 5 0  1 5 0  1.5 5 0  2 5 0  2.5 5 0  3 5 0  3.5 5 0  4 5 0  4.5 5 0  5 5 0  5.5 5 0  6 5 0  6.5 5 0  7 5 0  7.5 5 0  8 5 0  8.5 5 0  9 5 0  9.5 5 0  10 5 0  10.5 5 0  11 5 0  11.5 5 0  12 5 0  12.5 5 0  13 5 0  13.5 5 0  14 5 0  14.5 5 0  15 5 0  15.5 5 0  16 5 0  16.5 5 0  17 5 0  17.5 5 0  18 5 0  18.5 5 0  19 5 0  19.5 5 0  20 5 0  0 5.5 0  0.5 5.5 0  1 5.5 0  1.5 5.5 0  2 5.5 0  2.5 5.5 0  3 5.5 0  3.5 5.5 0  4 5.5 0  4.5 5.5 0  5 5.5 0  5.5 5.5 0  6 5.5 0  6.5 5.5 0  7 5.5 0  7.5 5.5 0  8 5.5 0  8.5 5.5 0  9 5.5 0  9.5 5.5 0  10 5.5 0  10.5 5.5 0  11 5.5 0  11.5 5.5 0  12 5.5 0  12.5 5.5 0  13 5.5 0  13.5 5.5 0  14 5.5 0  14.5 5.5 0  15 5.5 0  15.5 5.5 0  16 5.5 0  16.5 5.5 0  17 5.5 0  17.5 5.5 0  18 5.5 0  18.5 5.5 0  19 5.5 0  19.5 5.5 0  20 5.5 0  0 6 0  0.5 6 0  1 6 0  1.5 6 0  2 6 0  2.5 6 0  3 6 0  3.5 6 0  4 6 0  4.5 6 0  5 6 0  5.5 6 0  6 6 0  6.5 6 0  7 6 0  7.5 6 0  8 6 0  8.5 6 0  9 6 0  9.5 6 0  10 6 0  10.5 6 0  11 6 0  11.5 6 0  12 6 0  12.5 6 0  13 6 0  13.5 6 0  14 6 0  14.5 6 0  15 6 0  15.5 6 0  16 6 0  16.5 6 0  17 6 0  17.5 6 0  18 6 0  18.5 6 0  19 6 0  19.5 6 0  20 6 0  0 6.5 0  0.5 6.5 0  1 6.5 0  1.5 6.5 0  2 6.5 0  2.5 6.5 0  3 6.5 0  3.5 6.5 0  4 6.5 0  4.5 6.5 0  5 6.5 0  5.5 6.5 0  6 6.5 0  6.5 6.5 0  7 6.5 0  7.5 6.5 0  8 6.5 0  8.5 6.5 0  9 6.5 0  9.5 6.5 0  10 6.5 0  10.5 6.5 0  11 6.5 0  11.5 6.5 0  12 6.5 0  12.5 6.5 0  13 6.5 0  13.5 6.5 0  14 6.5 0  14.5 6.5 0  15 6.5 0  15.5 6.5 0  16 6.5 0  16.5 6.5 0  17 6.5 0  17.5 6.5 0  18 6.5 0  18.5 6.5 0  19 6.5 0  19.5 6.5 0  20 6.5 0  0 7 0  0.5 7 0  1 7 0  1.5 7 0  2 7 0  2.5 7 0  3 7 0  3.5 7 0  4 7 0  4.5 7 0  5 7 0  5.5 7 0  6 7 0  6.5 7 0  7 7 0  7.5 7 0  8 7 0  8.5 7 0  9 7 0  9.5 7 0  10 7 0  10.5 7 0  11 7 0  11.5 7 0  12 7 0  12.5 7 0  13 7 0  13.5 7 0  14 7 0  14.5 7 0  15 7 0  15.5 7 0  16 7 0  16.5 7 0  17 7 0  17.5 7 0  18 7 0  18.5 7 0  19 7 0  19.5 7 0  20 7 0  0 7.5 0  0.5 7.5 0  1 7.5 0  1.5 7.5 0  2 7.5 0  2.5 7.5 0  3 7.5 0  3.5 7.5 0  4 7.5 0  4.5 7.5 0  5 7.5 0  5.5 7.5 0  6 7.5 0  6.5 7.5 0  7 7.5 0  7.5 7.5 0  8 7.5 0  8.5 7.5 0  9 7.5 0  9.5 7.5 0  10 7.5 0  10.5 7.5 0  11 7.5 0  11.5 7.5 0  12 7.5 0  12.5 7.5 0  13 7.5 0  13.5 7.5 0  14 7.5 0  14.5 7.5 0  15 7.5 0  15.5 7.5 0  16 7.5 0  16.5 7.5 0  17 7.5 0  17.5 7.5 0  18 7.5 0  18.5 7.5 0  19 7.5 0  19.5 7.5 0  20 7.5 0  0 8 0  0.5 8 0  1 8 0  1.5 8 0  2 8 0  2.5 8 0  3 8 0  3.5 8 0  4 8 0  4.5 8 0  5 8 0  5.5 8 0  6 8 0  6.5 8 0  7 8 0  7.5 8 0  8 8 0  8.5 8 0  9 8 0  9.5 8 0  10 8 0  10.5 8 0  11 8 0  11.5 8 0  12 8 0  12.5 8 0  13 8 0  13.5 8 0  14 8 0  14.5 8 0  15 8 0  15.5 8 0  16 8 0  16.5 8 0  17 8 0  17.5 8 0  18 8 0  18.5 8 0  19 8 0  19.5 8 0  20 8 0  0 8.5 0  0.5 8.5 0  1 8.5 0  1.5 8.5 0  2 8.5 0  2.5 8.5 0  3 8.5 0  3.5 8.5 0  4 8.5 0  4.5 8.5 0  5 8.5 0  5.5 8.5 0  6 8.5 0  6.5 8.5 0  7 8.5 0  7.5 8.5 0  8 8.5 0  8.5 8.5 0  9 8.5 0  9.5 8.5 0  10 8.5 0  10.5 8.5 0  11 8.5 0  11.5 8.5 0  12 8.5 0  12.5 8.5 0  13 8.5 0  13.5 8.5 0  14 8.5 0  14.5 8.5 0  15 8.5 0  15.5 8.5 0  16 8.5 0  16.5 8.5 0  17 8.5 0  17.5 8.5 0  18 8.5 0  18.5 8.5 0  19 8.5 0  19.5 8.5 0  20 8.5 0  0 9 0  0.5 9 0  1 9 0  1.5 9 0  2 9 0  2.5 9 0  3 9 0  3.5 9 0  4 9 0  4.5 9 0  5 9 0  5.5 9 0  6 9 0  6.5 9 0  7 9 0  7.5 9 0  8 9 0  8.5 9 0  9 9 0  9.5 9 0  10 9 0  10.5 9 0  11 9 0  11.5 9 0  12 9 0  12.5 9 0  13 9 0  13.5 9 0  14 9 0  14.5 9 0  15 9 0  15.5 9 0  16 9 0  16.5 9 0  17 9 0  17.5 9 0  18 9 0  18.5 9 0  19 9 0  19.5 9 0  20 9 0  0 9.5 0  0.5 9.5 0  1 9.5 0  1.5 9.5 0  2 9.5 0  2.5 9.5 0  3 9.5 0  3.5 9.5 0  4 9.5 0  4.5 9.5 0  5 9.5 0  5.5 9.5 0  6 9.5 0  6.5 9.5 0  7 9.5 0  7.5 9.5 0  8 9.5 0  8.5 9.5 0  9 9.5 0  9.5 9.5 0  10 9.5 0  10.5 9.5 0  11 9.5 0  11.5 9.5 0  12 9.5 0  12.5 9.5 0  13 9.5 0  13.5 9.5 0  14 9.5 0  14.5 9.5 0  15 9.5 0  15.5 9.5 0  16 9.5 0  16.5 9.5 0  17 9.5 0  17.5 9.5 0  18 9.5 0  18.5 9.5 0  19 9.5 0  19.5 9.5 0  20 9.5 0  0 10 0  0.5 10 0  1 10 0  1.5 10 0  2 10 0  2.5 10 0  3 10 0  3.5 10 0  4 10 0  4.5 10 0  5 10 0  5.5 10 0  6 10 0  6.5 10 0  7 10 0  7.5 10 0  8 10 0  8.5 10 0  9 10 0  9.5 10 0  10 10 0  10.5 10 0  11 10 0  11.5 10 0  12 10 0  12.5 10 0  13 10 0  13.5 10 0  14 10 0  14.5 10 0  15 10 0  15.5 10 0  16 10 0  16.5 10 0  17 10 0  17.5 10 0  18 10 0  18.5 10 0  19 10 0  19.5 10 0  20 10 0  0 10.5 0  0.5 10.5 0  1 10.5 0  1.5 10.5 0  2 10.5 0  2.5 10.5 0  3 10.5 0  3.5 10.5 0  4 10.5 0  4.5 10.5 0  5 10.5 0  5.5 10.5 0  6 10.5 0  6.5 10.5 0  7 10.5 0  7.5 10.5 0  8 10.5 0  8.5 10.5 0  9 10.5 0  9.5 10.5 0  10 10.5 0  10.5 10.5 0  11 10.5 0  11.5 10.5 0  12 10.5 0  12.5 10.5 0  13 10.5 0  13.5 10.5 0  14 10.5 0  14.5 10.5 0  15 10.5 0  15.5 10.5 0  16 10.5 0  16.5 10.5 0  17 10.5 0  17.5 10.5 0  18 10.5 0  18.5 10.5 0  19 10.5 0  19.5 10.5 0  20 10.5 0  0 11 0  0.5 11 0  1 11 0  1.5 11 0  2 11 0  2.5 11 0  3 11 0  3.5 11 0  4 11 0  4.5 11 0  5 11 0  5.5 11 0  6 11 0  6.5 11 0  7 11 0  7.5 11 0  8 11 0  8.5 11 0  9 11 0  9.5 11 0  10 11 0  10.5 11 0  11 11 0  11.5 11 0  12 11 0  12.5 11 0  13 11 0  13.5 11 0  14 11 0  14.5 11 0  15 11 0  15.5 11 0  16 11 0  16.5 11 0  17 11 0  17.5 11 0  18 11 0  18.5 11 0  19 11 0  19.5 11 0  20 11 0  0 11.5 0  0.5 11.5 0  1 11.5 0  1.5 11.5 0  2 11.5 0  2.5 11.5 0  3 11.5 0  3.5 11.5 0  4 11.5 0  4.5 11.5 0  5 11.5 0  5.5 11.5 0  6 11.5 0  6.5 11.5 0  7 11.5 0  7.5 11.5 0  8 11.5 0  8.5 11.5 0  9 11.5 0  9.5 11.5 0  10 11.5 0  10.5 11.5 0  11 11.5 0  11.5 11.5 0  12 11.5 0  12.5 11.5 0  13 11.5 0  13.5 11.5 0  14 11.5 0  14.5 11.5 0  15 11.5 0  15.5 11.5 0  16 11.5 0  16.5 11.5 0  17 11.5 0  17.5 11.5 0  18 11.5 0  18.5 11.5 0  19 11.5 0  19.5 11.5 0  20 11.5 0  0 12 0  0.5 12 0  1 12 0  1.5 12 0  2 12 0  2.5 12 0  3 12 0  3.5 12 0  4 12 0  4.5 12 0  5 12 0  5.5 12 0  6 12 0  6.5 12 0  7 12 0  7.5 12 0  8 12 0  8.5 12 0  9 12 0  9.5 12 0  10 12 0  10.5 12 0  11 12 0  11.5 12 0  12 12 0  12.5 12 0  13 12 0  13.5 12 0  14 12 0  14.5 12 0  
[...]
<PointData  Scalars="f_5623-1"> 
<DataArray  type="Float64"  Name="f_5623-1"  format="ascii">-3.4275139364505103e-01  -3.4275254751825157e-01  -3.4275536214082158e-01  -3.4276020501105631e-01  -3.4276755872712439e-01  -3.4277811013010762e-01  -3.4279281174314152e-01  -3.4281294991467348e-01  -3.4284022955801863e-01  -3.4287688035656483e-01  -3.4292578843760224e-01  -3.4299065754613689e-01  -3.4307620390633126e-01  -3.4318838901147963e-01  -3.4333469441805087e-01  -3.4352444213870331e-01  -3.4376916333261265e-01  -3.4408301657021889e-01  -3.4448325489024212e-01  -3.4499073806077679e-01  -3.4563048281516640e-01  -3.4643223931389278e-01  -3.4743107672257184e-01  -3.4866795475614826e-01  -3.5019025166491324e-01  -3.5205221301255457e-01  -3.5431528058780476e-01  -3.5704825805929530e-01  -3.6032727091788108e-01  -3.6423548430364577e-01  -3.6886255470204121e-01  -3.7430381078119529e-01  -3.8065918428942608e-01  -3.8803194194146640e-01  -3.9652730011490006e-01  -4.0625103153495112e-01  -4.1730819297311122e-01  -4.2980211465512019e-01  -4.4383380486474860e-01  -4.5950197515034868e-01  -4.7690409866644812e-01  -3.4275254751825157e-01  -3.4275350757660067e-01  -3.4275628775240052e-01  -3.4276113476149084e-01  -3.4276850523520724e-01  -3.4277908063120538e-01  -3.4279381304439432e-01  -3.4281398985149941e-01  -3.4284131760807446e-01  -3.4287802803615441e-01  -3.4292700963728939e-01  -3.4299196884181171e-01  -3.4307762484463478e-01  -3.4318994235263423e-01  -3.4333640630916651e-01  -3.4352634218231443e-01  -3.4377128450752875e-01  -3.4408539495486873e-01  -3.4448592913330378e-01  -3.4499374854130843e-01  -3.4563387043653676e-01  -3.4643604388502353e-01  -3.4743533489934719e-01  -3.4867269754858937e-01  -3.5019550156477919e-01  -3.5205798086290163e-01  -3.5432156239910817e-01  -3.5705503206932110e-01  -3.6033449528077877e-01  -3.6424309585567977e-01  -3.6887046925735573e-01  -3.7431192532644714e-01  -3.8066738123369764e-01  -3.8804009518878924e-01  -3.9653528204699184e-01  -4.0625871862768714e-01  -4.1731546425416172e-01  -4.2980882606307996e-01  -4.4383968344738900e-01  -4.5950623604066498e-01  -4.7690409866644812e-01  -3.4275536214082158e-01  -3.4275628775240052e-01  -3.4275905364402998e-01  -3.4276390495573489e-01  -3.4277129100585924e-01  -3.4278188985253477e-01  -3.4279665280318905e-01  -3.4281686777586967e-01  -3.4284424257959989e-01  -3.4288101063879034e-01  -3.4293006248942076e-01  -3.4299510686265533e-01  -3.4308086546372013e-01  -3.4319330565016631e-01  -3.4333991506279332e-01  -3.4353002178731484e-01  -3.4377516273116682e-01  -3.4408950148154493e-01  -3.4449029485587279e-01  -3.4499840455673553e-01  -3.4563884671253803e-01  -3.4644136758034966e-01  -3.4744102834583468e-01  -3.4867877593956242e-01  -3.5020197044232898e-01  -3.5206483355445728e-01  -3.5432877761671872e-01  -3.5706257194371449e-01  -3.6034230414136137e-01  -3.6425110006591888e-01  -3.6887857834565041e-01  -3.7432003448397078e-01  -3.8067537494349052e-01  -3.8804785124279551e-01  -3.9654267437060781e-01  -4.0626561586614474e-01  -4.1732171835658066e-01  -4.2981424025070591e-01  -4.4384394294069429e-01  -4.5950879267980588e-01  -4.7690409866644812e-01  -3.4276020501105631e-01  -3.4276113476149084e-01  -3.4276390495573489e-01  -3.4276876759157920e-01  -3.4277617207711947e-01  -3.4278679580374360e-01  -3.4280159001918181e-01  -3.4282184324118348e-01  -3.4284926437841756e-01  -3.4288608832046880e-01  -3.4293520734074107e-01  -3.4300033210631431e-01  -3.4308618638236438e-01  -3.4319873962090197e-01  -3.4334548147711536e-01  -3.4353574182447638e-01  -3.4378105894874000e-01  -3.4409559718564736e-01  -3.4449661321609742e-01  -3.4500496743841874e-01  -3.4564567321300510e-01  -3.4644847227752734e-01  -3.4744841929808956e-01  -3.4868645251494723e-01  -3.5020992110220989e-01  -3.5207303376702703e-01  -3.5433718812318638e-01  -3.5707113763303960e-01  -3.6035095379304910e-01  -3.6425974717574094e-01  -3.6888712313524868e-01  -3.7432836699123423e-01  -3.8068337877714925e-01  -3.8805540714444675e-01  -3.9654966214776399e-01  -4.0627191256424289e-01  -4.1732718993321766e-01  -4.2981872438305585e-01  -4.4384722469572191e-01  -4.5951058891780111e-01  -4.7690409866644812e-01  -3.4276755872712439e-01  -3.4276850523520730e-01  -3.4277129100585929e-01  -3.4277617207711947e-01  -3.4278359930168095e-01  -3.4279425059789015e-01  -3.4280907771129604e-01  -3.4282936991057478e-01  -3.4285683714307652e-01  -3.4289371558357679e-01  -3.4294289897598790e-01  -3.4300809957212619e-01  -3.4309404275099614e-01  -3.4320669950127419e-01  -3.4335356080384200e-01  -3.4354395748094135e-01  -3.4378942819012676e-01  -3.4410413682937824e-01  -3.4450533857330728e-01  -3.4501389097209406e-01  -3.4565480292747569e-01  -3.4645780987101171e-01  -3.4745795814519342e-01  -3.4869617558842242e-01  -3.5021979899008676e-01  -3.5208302298709354e-01  -3.5434722997326185e-01  -3.5708115783081357e-01  -3.6036086313887256e-01  -3.6426944339989648e-01  -3.6889649395388685e-01  -3.7433729418448841e-01  -3.8069174282321372e-01  -3.8806309162010733e-01  -3.9655655680342322e-01  -4.0627791384339934e-01  -4.1733219803766169e-01  -4.2982263737090232e-01  -4.4384993342169698e-01  -4.5951198257787956e-01  -4.7690409866644812e-01  -3.4277811013010767e-01  -3.4277908063120538e-01  -3.4278188985253477e-01  -3.4278679580374360e-01  -3.4279425059789009e-01  -3.4280493297144993e-01  -3.4281979539626267e-01  -3.4284012796257707e-01  -3.4286764159285232e-01  -3.4290457357923065e-01  -3.4295381887760357e-01  -3.4301909097414618e-01  -3.4310511640871261e-01  -3.4321786713460589e-01  -3.4336483474780138e-01  -3.4355535014976474e-01  -3.4380095132231642e-01  -3.4411580048517687e-01  -3.4451714986570564e-01  -3.4502585252867252e-01  -3.4566691110430359e-01  -3.4647005277206694e-01  -3.4747031354098046e-01  -3.4870860887382399e-01  -3.5023226137005609e-01  -3.5209545012298454e-01  -3.5435954135282138e-01  -3.5709325712876328e-01  -3.6037263979859063e-01  -3.6428077557678123e-01  -3.6890725280913256e-01  -3.7434734930621638e-01  -3.8070096829960121e-01  -3.8807137204170827e-01  -3.9656379231083311e-01  -4.0628402339049485e-01  -4.1733712048878552e-01  -4.2982633108891188e-01  -4.4385237673566591e-01  -4.5951317979311773e-01  -4.7690409866644812e-01  -3.4279281174314158e-01  -3.4279381304439438e-01  -3.4279665280318905e-01  -3.4280159001918181e-01  -3.4280907771129598e-01  -3.4281979539626267e-01  -3.4283469629625229e-01  -3.4285507130086462e-01  -3.4288263220858667e-01  -3.4291961724704723e-01  -3.4296892231537546e-01  -3.4303426176963620e-01  -3.4312036283602554e-01  -3.4323319782922268e-01  -3.4338025820663204e-01  -3.4357087402183351e-01  -3.4381658145792865e-01  -3.4413153971821470e-01  -3.4453299651655178e-01  -3.4504179863556805e-01  -3.4568294041977149e-01  -3.4648613859877747e-01  -3.4748641652732526e-01  -3.4872467494100662e-01  -3.5024821999485178e-01  -3.5211121324578742e-01  -3.5437500320849369e-01  -3.5710829529496801e-01  -3.6038711770865717e-01  -3.6429454663974364e-01  -3.6892016611305639e-01  -3.7435925665939318e-01  -3.8071173211334297e-01  -3.8808087332748809e-01  -3.9657193792690176e-01  -4.0629075171948731e-01  -4.1734240504447917e-01  -4.2983018217858149e-01  -4.4385484218956106e-01  -4.5951434671734970e-01  -4.7690409866644812e-01  -3.4281294991467348e-01  -3.4281398985149941e-01  -3.4281686777586967e-01  -3.4282184324118348e-01  -3.4282936991057478e-01  -3.4284012796257707e-01  -3.4285507130086462e-01  -3.4287549152895580e-01  -3.4290310118423845e-01  -3.4294013922201050e-01  -3.4298950219164986e-01  -3.4305490492526236e-01  -3.4314107482173339e-01  -3.4325398390119150e-01  -3.4340112265884415e-01  -3.4359181928178800e-01  -3.4383760691337767e-01  -3.4415264025172693e-01  -3.4455416074074247e-01  -3.4506300684627655e-01  -3.4570416231842283e-01  -3.4650733087891405e-01  -3.4750752047278699e-01  -3.4874561424142980e-01  -3.5026889904240216e-01  -3.5213151622658256e-01  -3.5439479433107463e-01  -3.5712742049203322e-01  -3.6040540809203075e-01  -3.6431182386991295e-01  -3.6893624965884397e-01  -3.7437397267900729e-01  -3.8072492341227632e-01  -3.8809240958932550e-01  -3.9658172523481594e-01  -4.0629874035812835e-01  -4.1734859474532043e-01  -4.2983462435192804e-01  -4.4385763920466059e-01  -4.5951564876028433e-01  -4.7690409866644812e-01  -3.4284022955801857e-01  -3.4284131760807440e-01  -3.4284424257959989e-01  -3.4284926437841756e-01  -3.4285683714307646e-01  -3.4286764159285232e-01  -3.4288263220858667e-01  -3.4290310118423845e-01  -3.4293076162521785e-01  -3.4296785297422766e-01  -3.4301727210135158e-01  -3.4308273387490928e-01  -3.4316896529251689e-01  -3.4328193734436313e-01  -3.4342913863603558e-01  -3.4361989433555507e-01  -3.4386573313452734e-01  -3.4418080352133551e-01  -3.4458233864397486e-01  -3.4509116628384012e-01  -3.4573225688094339e-01  -3.4653529809998673e-01  -3.4753527913667770e-01  -3.4877306198791180e-01  -3.5029591057759479e-01  -3.5215794250503030e-01  -3.5442046310723740e-01  -3.5715213863264267e-01  -3.6042896597746765e-01  -3.6433400207883565e-01  -3.6895682791976497e-01  -3.7439274079336249e-01  -3.8074169353268950e-01  -3.8810702892149945e-01  -3.9659408798437878e-01  -4.0630879762972383e-01  -4.1735636116757802e-01  -4.2984018045575423e-01  -4.4386112896715352e-01  -4.5951727209102811e-01  -4.7690409866644812e-01  -3.4287688035656477e-01  -3.4287802803615436e-01  -3.4288101063879034e-01  -3.4288608832046874e-01  -3.4289371558357679e-01  -3.4290457357923065e-01  -3.4291961724704723e-01  -3.4294013922201050e-01  -3.4296785297422766e-01  -3.4300499815395397e-01  -3.4305447157219721e-01  -3.4311998762806450e-01  -3.4320627225765971e-01  -3.4331929457295379e-01  -3.4346654021631529e-01  -3.4365732999698934e-01  -3.4390318650603124e-01  -3.4421825002111539e-01  -3.4461974300125281e-01  -3.4512847972599325e-01  -3.4576941406507378e-01  -3.4657221392600485e-01  -3.4757184564829113e-01  -3.4880914564462001e-01  -3.5033135025774126e-01  -3.5219254866604488e-01  -3.5445401856919234e-01  -3.5718440144660318e-01  -3.6045967477113544e-01  -3.6436288412172613e-01  -3.6898360991007123e-01  -3.7441716204508879e-01  -3.8076352086133874e-01  -3.8812607213858485e-01  -3.9661021458179463e-01  -4.0632194503580604e-01  -4.1736654494415248e-01  -4.2984749699969377e-01  -4.4386575164441172e-01  -4.5951944015911977e-01  -4.7690409866644812e-01  -3.4292578843760219e-01  -3.4292700963728934e-01  -3.4293006248942071e-01  -3.4293520734074101e-01  -3.4294289897598784e-01  -3.4295381887760357e-01  -3.4296892231537546e-01  -3.4298950219164986e-01  -3.4301727210135152e-01  -3.4305447157219721e-01  -3.4310399690879317e-01  -3.4316956144564970e-01  -3.4325588927849582e-01  -3.4336894663821127e-01  -3.4351621493131079e-01  -3.4370700901535461e-01  -3.4395284341357668e-01  -3.4426784779580127e-01  -3.4466923105150815e-01  -3.4517779054780962e-01  -3.4581845961051155e-01  -3.4662088184252426e-01  -3.4761999562831652e-01  -3.4885660621382908e-01  -3.5037791642083393e-01  -3.5223798090772818e-01  -3.5449804375851690e-01  -3.5722671619317969e-01  -3.6049995170887428e-01  -3.6440078142872856e-01  -3.6901878409999639e-01  -3.7444928368972585e-01  -3.8079229245310620e-01  -3.8815124682793084e-01  -3.9663161410243614e-01  -4.0633947484378513e-01  -4.1738020451675911e-01  -4.2985738340490864e-01  -4.4387205488518189e-01  -4.5952242934613924e-01  -4.7690409866644812e-01  -3.4299065754613689e-01  -3.4299196884181166e-01  -3.4299510686265533e-01  -3.4300033210631425e-01  -3.4300809957212619e-01  -3.4301909097414612e-01  -3.4303426176963614e-01  -3.4305490492526236e-01  -3.4308273387490928e-01  -3.4311998762806450e-01  -3.4316956144564970e-01  -3.4323516688159750e-01  -3.4332152525345533e-01  -3.4343459870169629e-01  -3.4358186285974451e-01  -3.4377262470554437e-01  -3.4401838830790588e-01  -3.4433326981258267e-01  -3.4473446102342392e-01  -3.4524273821500562e-01  -3.4588300927474125e-01  -3.4668488786557139e-01  -3.4768327805053878e-01  -3.4891894687267250e-01  -3.5043905605593123e-01  -3.5229761783477564e-01  -3.5455583475883740e-01  -3.5728228027489106e-01  -3.6055287732126623e-01  -3.6445063752804957e-01  -3.6906513515557166e-01  -3.7449170828508455e-01  -3.8083040460455819e-01  -3.8818471857031384e-01  -3.9666019736347108e-01  -4.0636302024369514e-01  -4.1739867457945234e-01  -4.2987085780840689e-01  -4.4388072581605481e-01  -4.5952658570119836e-01  -4.7690409866644812e-01  -3.4307620390633126e-01  -3.4307762484463478e-01  -3.4308086546372013e-01  -3.4308618638236438e-01  -3.4309404275099609e-01  -3.4310511640871261e-01  -3.4312036283602554e-01  -3.4314107482173339e-01  -3.4316896529251689e-01  -3.4320627225765971e-01  -3.4325588927849576e-01  -3.4332152525345533e-01  -3.4340789757513451e-01  -3.4352096281381689e-01  -3.4366818894724654e-01  -3.4385887271023846e-01  -3.4410450478746513e-01  -3.4441918421465345e-01  -3.4482008137705339e-01  -3.4532794629138225e-01  -3.4596765533781187e-01  -3.4676878522167287e-01  -3.4776619771372130e-01  -3.4900061278437894e-01  -3.5051914142473228e-01  -3.5237574327841792e-01  -3.5463156901455711e-01  -3.5735514426597054e-01  -3.6062235229536088e-01  -3.6451617778414847e-01  -3.6912618552897475e-01  -3.7454772606032050e-01  -3.8088088490131972e-01  -3.8822922156011397e-01  -3.9669837502193739e-01  -4.0639463984276997e-01  -4.1742363588836312e-01  -4.2988920108142553e-01  -4.4389262812087787e-01  -4.5953234394060799e-01  -4.7690409866644812e-01  -3.4318838901147963e-01  -3.4318994235263423e-01  -3.4319330565016626e-01  -3.4319873962090197e-01  -3.4320669950127419e-01  -3.4321786713460589e-01  -3.4323319782922274e-01  -3.4325398390119150e-01  -3.4328193734436313e-01  -3.4331929457295379e-01  -3.4336894663821127e-01  -3.4343459870169629e-01  -3.4352096281381689e-01  -3.4363398814601265e-01  -3.4378113269377480e-01  -3.4397168002707379e-01  -3.4421710382286058e-01  -3.4453148156778751e-01  -3.4493195685809153e-01  -3.4543924703970313e-01  -3.4607818943388169e-01  -3.4687831503041250e-01  -3.4787443332250467e-01  -3.4910720604242762e-01  -3.5062368124249255e-01  -3.5247775298827100e-01  -3.5473050670248729e-01  -3.5745040702421932e-01  -3.6071328527969587e-01  -3.6460208874724187e-01  -3.6920636511369365e-01  -3.7462147356488718e-01  -3.8094753849764451e-01  -3.8828819112536167e-01  -3.9674917494223810e-01  -4.0643691850569402e-01  -4.1745719823616712e-01  -4.2991402065441114e-01  -4.4390884552040660e-01  -4.5954024954878808e-01  -4.7690409866644812e-01  -3.4333469441805092e-01  -3.4333640630916651e-01  -3.4333991506279332e-01  -3.4334548147711536e-01  -3.4335356080384194e-01  -3.4336483474780138e-01  -3.4338025820663204e-01  -3.4340112265884415e-01  -3.4342913863603552e-01  -3.4346654021631529e-01  -3.4351621493131079e-01  -3.4358186285974451e-01  -3.4366818894724660e-01  -3.4378113269377480e-01  -3.4392813922264137e-01  -3.4411847531087147e-01  -3.4436359312820425e-01  -3.4467754309876558e-01  -3.4507743535568403e-01  -3.4558394659679503e-01  -3.4622186567739616e-01  -3.4702066694077494e-01  -3.4801509510712580e-01  -3.4924573964958316e-01  -3.5075957028400789e-01  -3.5261039901465147e-01  -3.5485922891370730e-01  -3.5757444656463322e-01  -3.6083181521034491e-01  -3.6471423056563257e-01  -3.6931121226118646e-01  -3.7471812170942753e-01  -3.8103512152749142e-01  -3.8836592081099697e-01  -3.9681638124421581e-01  -4.0649308668882606e-01  -4.1750199846390845e-01  -4.2994732571508315e-01  -4.4393073284144591e-01  -4.5955098466015148e-01  -4.7690409866644812e-01  -3.4352444213870337e-01  -3.4352634218231443e-01  -3.4353002178731484e-01  -3.4353574182447638e-01  -3.4354395748094135e-01  -3.4355535014976474e-01  -3.4357087402183351e-01  -3.4359181928178800e-01  -3.4361989433555501e-01  -3.4365732999698928e-01  -3.4370700901535461e-01  -3.4377262470554437e-01  -3.4385887271023852e-01  -3.4397168002707379e-01  -3.4411847531087147e-01  -3.4430850403390578e-01  -3.4455319126562273e-01  -3.4486655351514478e-01  -3.4526565915628410e-01  -3.4577113431796075e-01  -3.4640770768077567e-01  -3.4720478331857357e-01  -3.4819702557744464e-01  -3.4942493412199660e-01  -3.5093538099429678e-01  -3.5278207534281714e-01  -3.5502591617831464e-01  -3.5773519018439409e-01  -3.6098557158612365e-01  -3.6485988580483830e-01  -3.6944760939217064e-01  -3.7484409629108861e-01  -3.8114954456737354e-01  -3.8846774674146523e-01  -3.9690469751217089e-01  -4.0656716048051583e-01  -4.1756131541674002e-01  -4.2999161533126362e-01  -4.4395997580235075e-01  -4.5956539833146010e-01  -4.7690409866644812e-01  -3.4376916333261265e-01  -3.4377128450752881e-01  -3.4377516273116682e-01  -3.4378105894874000e-01  -3.4378942819012676e-01  -3.4380095132231642e-01  -3.4381658145792865e-01  -3.4383760691337767e-01  -3.4386573313452728e-01  -3.4390318650603124e-01  -3.4395284341357668e-01  -3.4401838830790588e-01  -3.4410450478746518e-01  -3.4421710382286058e-01  -3.4436359312820425e-01  -3.4455319126562273e-01  -3.4479728926007791e-01  -3.4510986120112708e-01  -3.4550792340800607e-01  -3.4601203912714518e-01  -3.4664686232446040e-01  -3.4744170987257744e-01  -3.4843114632768973e-01  -3.4965555966486028e-01  -3.5116170008050801e-01  -3.5300314778362257e-01  -3.5524067036055829e-01  -3.5794242688096478e-01  -3.6118397573549932e-01  -3.6504804769803739e-01  -3.6962405618436689e-01  -3.7500733391185259e-01  -3.8129810895022787e-01  -3.8860026191138086e-01  -3.9701993661716783e-01  -4.0666410455276769e-01  -4.1763920374520730e-01  -4.3004998103245662e-01  -4.4399866060901044e-01  -4.5958454178318958e-01  -4.7690409866644812e-01  -3.4408301657021889e-01  -3.4408539495486873e-01  -3.4408950148154493e-01  -3.4409559718564736e-01  -3.4410413682937818e-01  -3.4411580048517687e-01  -3.4413153971821464e-01  -3.4415264025172693e-01  -3.4418080352133551e-01  -3.4421825002111534e-01  -3.4426784779580122e-01  -3.4433326981258267e-01  -3.4441918421465345e-01  -3.4453148156778751e-01  -3.4467754309876558e-01  -3.4486655351514478e-01  -3.4510986120112708e-01  -3.4542138730410310e-01  -3.4581808335344677e-01  -3.4632043448050415e-01  -3.4695300194376288e-01  -3.4774499444845625e-01  -3.4873085269407483e-01  -3.4995082580322767e-01  -3.5145151205795971e-01  -3.5328633018912320e-01  -3.5551588209218510e-01  -3.5820816433003932e-01  -3.6143858543495427e-01  -3.6528975026758859e-01  -3.6985098283503864e-01  -3.7521757581591075e-01  -3.8148977844305826e-01  -3.8877156285263714e-01  -3.9716923947591692e-01  -4.0679002015314292e-01  -4.1774064841028169e-01  -4.3012622535673378e-01  -4.4404935443456206e-01  -4.5960970917479521e-01  -4.7690409866644812e-01  -3.4448325489024212e-01  -3.4448592913330373e-01  -3.4449029485587279e-01  -3.4449661321609742e-01  -3.4450533857330728e-01  -3.4451714986570559e-01  -3.4453299651655178e-01  -3.4455416074074241e-01  -3.4458233864397486e-01  -3.4461974300125281e-01  -3.4466923105150815e-01  -3.4473446102342392e-01  -3.4482008137705344e-01  -3.4493195685809153e-01  -3.4507743535568397e-01  -3.4526565915628410e-01  -3.4550792340800607e-01  -3.4581808335344677e-01  -3.4621301004780658e-01  -3.4671309174726661e-01  -3.4734277483715265e-01  -3.4813113401145079e-01  -3.4911245641973093e-01  -3.5032681877452226e-01  -3.5182063022797644e-01  -3.5364710766037222e-01  -3.5586664461702888e-01  -3.5854703151412459e-01  -3.6176348419263599e-01  -3.6559844185057261e-01  -3.7014110513459136e-01  -3.7548670155570618e-01  -3.8173548832556320e-01  -3.8899153078051946e-01  -3.9736132483608078e-01  -4.0695236012247049e-01  -4.1787174167234287e-01  -4.3022499783298185e-01  -4.4411519784195047e-01  -4.5964248447483563e-01  -4.7690409866644812e-01  -3.4499073806077685e-01  -3.4499374854130843e-01  -3.4499840455673553e-01  -3.4500496743841869e-01  -3.4501389097209401e-01  -3.4502585252867246e-01  -3.4504179863556805e-01  -3.4506300684627655e-01  -3.4509116628384012e-01  -3.4512847972599325e-01  -3.4517779054780962e-01  -3.4524273821500567e-01  -3.4532794629138225e-01  -3.4543924703970313e-01  -3.4558394659679503e-01  -3.4577113431796069e-01  -3.4601203912714518e-01  -3.4632