<?xml version="1.0"?>
<VTKFile type="UnstructuredGrid"  version="0.1"  >
<UnstructuredGrid>
<Piece  NumberOfPoints="1681" NumberOfCells="3200">
<Points>
<DataArray  type="Float64"  NumberOfComponents="3"  format="ascii">0 0 0  0.5 0 0  1 0 0  1.5 0 0  2 0 0  2.5 0 0  3 0 0  3.5 0 0  4 0 0  4.5 0 0  5 0 0  5.5 0 0  6 0 0  6.5 0 0  7 0 0  7.5 0 0  8 0 0  8.5 0 0  9 0 0  9.5 0 0  10 0 0  10.5 0 0  11 0 0  11.5 0 0  12 0 0  12.5 0 0  13 0 0  13.5 0 0  14 0 0  14.5 0 0  15 0 0  15.5 0 0  16 0 0  16.5 0 0  17 0 0  17.5 0 0  18 0 0  18.5 0 0  19 0 0  19.5 0 0  20 0 0  0 0.5 0  0.5 0.5 0  1 0.5 0  1.5 0.5 0  2 0.5 0  2.5 0.5 0  3 0.5 0  3.5 0.5 0  4 0.5 0  4.5 0.5 0  5 0.5 0  5.5 0.5 0  6 0.5 0  6.5 0.5 0  7 0.5 0  7.5 0.5 0  8 0.5 0  8.5 0.5 0  9 0.5 0  9.5 0.5 0  10 0.5 0  10.5 0.5 0  11 0.5 0  11.5 0.5 0  12 0.5 0  12.5 0.5 0  13 0.5 0  13.5 0.5 0  14 0.5 0  14.5 0.5 0  15 0.5 0  15.5 0.5 0  16 0.5 0  16.5 0.5 0  17 0.5 0  17.5 0.5 0  18 0.5 0  18.5 0.5 0  19 0.5 0  19.5 0.5 0  20 0.5 0  0 1 0  0.5 1 0  1 1 0  1.5 1 0  2 1 0  2.5 1 0  3 1 0  3.5 1 0  4 1 0  4.5 1 0  5 1 0  5.5 1 0  6 1 0  6.5 1 0  7 1 0  7.5 1 0  8 1 0  8.5 1 0  9 1 0  9.5 1 0  10 1 0  10.5 1 0  11 1 0  11.5 1 0  12 1 0  12.5 1 0  13 1 0  13.5 1 0  14 1 0  14.5 1 0  15 1 0  15.5 1 0  16 1 0  16.5 1 0  17 1 0  17.5 1 0  18 1 0  18.5 1 0  19 1 0  19.5 1 0  20 1 0  0 1.5 0  0.5 1.5 0  1 1.5 0  1.5 1.5 0  2 1.5 0  2.5 1.5 0  3 1.5 0  3.5 1.5 0  4 1.5 0  4.5 1.5 0  5 1.5 0  5.5 1.5 0  6 1.5 0  6.5 1.5 0  7 1.5 0  7.5 1.5 0  8 1.5 0  8.5 1.5 0  9 1.5 0  9.5 1.5 0  10 1.5 0  10.5 1.5 0  11 1.5 0  11.5 1.5 0  12 1.5 0  12.5 1.5 0  13 1.5 0  13.5 1.5 0  14 1.5 0  14.5 1.5 0  15 1.5 0  15.5 1.5 0  16 1.5 0  16.5 1.5 0  17 1.5 0  17.5 1.5 0  18 1.5 0  18.5 1.5 0  19 1.5 0  19.5 1.5 0  20 1.5 0  0 2 0  0.5 2 0  1 2 0  1.5 2 0  2 2 0  2.5 2 0  3 2 0  3.5 2 0  4 2 0  4.5 2 0  5 2 0  5.5 2 0  6 2 0  6.5 2 0  7 2 0  7.5 2 0  8 2 0  8.5 2 0  9 2 0  9.5 2 0  10 2 0  10.5 2 0  11 2 0  11.5 2 0  12 2 0  12.5 2 0  13 2 0  13.5 2 0  14 2 0  14.5 2 0  15 2 0  15.5 2 0  16 2 0  16.5 2 0  17 2 0  17.5 2 0  18 2 0  18.5 2 0  19 2 0  19.5 2 0  20 2 0  0 2.5 0  0.5 2.5 0  1 2.5 0  1.5 2.5 0  2 2.5 0  2.5 2.5 0  3 2.5 0  3.5 2.5 0  4 2.5 0  4.5 2.5 0  5 2.5 0  5.5 2.5 0  6 2.5 0  6.5 2.5 0  7 2.5 0  7.5 2.5 0  8 2.5 0  8.5 2.5 0  9 2.5 0  9.5 2.5 0  10 2.5 0  10.5 2.5 0  11 2.5 0  11.5 2.5 0  12 2.5 0  12.5 2.5 0  13 2.5 0  13.5 2.5 0  14 2.5 0  14.5 2.5 0  15 2.5 0  15.5 2.5 0  16 2.5 0  16.5 2.5 0  17 2.5 0  17.5 2.5 0  18 2.5 0  18.5 2.5 0  19 2.5 0  19.5 2.5 0  20 2.5 0  0 3 0  0.5 3 0  1 3 0  1.5 3 0  2 3 0  2.5 3 0  3 3 0  3.5 3 0  4 3 0  4.5 3 0  5 3 0  5.5 3 0  6 3 0  6.5 3 0  7 3 0  7.5 3 0  8 3 0  8.5 3 0  9 3 0  9.5 3 0  10 3 0  10.5 3 0  11 3 0  11.5 3 0  12 3 0  12.5 3 0  13 3 0  13.5 3 0  14 3 0  14.5 3 0  15 3 0  15.5 3 0  16 3 0  16.5 3 0  17 3 0  17.5 3 0  18 3 0  18.5 3 0  19 3 0  19.5 3 0  20 3 0  0 3.5 0  0.5 3.5 0  1 3.5 0  1.5 3.5 0  2 3.5 0  2.5 3.5 0  3 3.5 0  3.5 3.5 0  4 3.5 0  4.5 3.5 0  5 3.5 0  5.5 3.5 0  6 3.5 0  6.5 3.5 0  7 3.5 0  7.5 3.5 0  8 3.5 0  8.5 3.5 0  9 3.5 0  9.5 3.5 0  10 3.5 0  10.5 3.5 0  11 3.5 0  11.5 3.5 0  12 3.5 0  12.5 3.5 0  13 3.5 0  13.5 3.5 0  14 3.5 0  14.5 3.5 0  15 3.5 0  15.5 3.5 0  16 3.5 0  16.5 3.5 0  17 3.5 0  17.5 3.5 0  18 3.5 0  18.5 3.5 0  19 3.5 0  19.5 3.5 0  20 3.5 0  0 4 0  0.5 4 0  1 4 0  1.5 4 0  2 4 0  2.5 4 0  3 4 0  3.5 4 0  4 4 0  4.5 4 0  5 4 0  5.5 4 0  6 4 0  6.5 4 0  7 4 0  7.5 4 0  8 4 0  8.5 4 0  9 4 0  9.5 4 0  10 4 0  10.5 4 0  11 4 0  11.5 4 0  12 4 0  12.5 4 0  13 4 0  13.5 4 0  14 4 0  14.5 4 0  15 4 0  15.5 4 0  16 4 0  16.5 4 0  17 4 0  17.5 4 0  18 4 0  18.5 4 0  19 4 0  19.5 4 0  20 4 0  0 4.5 0  0.5 4.5 0  1 4.5 0  1.5 4.5 0  2 4.5 0  2.5 4.5 0  3 4.5 0  3.5 4.5 0  4 4.5 0  4.5 4.5 0  5 4.5 0  5.5 4.5 0  6 4.5 0  6.5 4.5 0  7 4.5 0  7.5 4.5 0  8 4.5 0  8.5 4.5 0  9 4.5 0  9.5 4.5 0  10 4.5 0  10.5 4.5 0  11 4.5 0  11.5 4.5 0  12 4.5 0  12.5 4.5 0  13 4.5 0  13.5 4.5 0  14 4.5 0  14.5 4.5 0  15 4.5 0  15.5 4.5 0  16 4.5 0  16.5 4.5 0  17 4.5 0  17.5 4.5 0  18 4.5 0  18.5 4.5 0  19 4.5 0  19.5 4.5 0  20 4.5 0  0 5 0  0.5 5 0  1 5 0  1.5 5 0  2 5 0  2.5 5 0  3 5 0  3.5 5 0  4 5 0  4.5 5 0  5 5 0  5.5 5 0  6 5 0  6.5 5 0  7 5 0  7.5 5 0  8 5 0  8.5 5 0  9 5 0  9.5 5 0  10 5 0  10.5 5 0  11 5 0  11.5 5 0  12 5 0  12.5 5 0  13 5 0  13.5 5 0  14 5 0  14.5 5 0  15 5 0  15.5 5 0  16 5 0  16.5 5 0  17 5 0  17.5 5 0  18 5 0  18.5 5 0  19 5 0  19.5 5 0  20 5 0  0 5.5 0  0.5 5.5 0  1 5.5 0  1.5 5.5 0  2 5.5 0  2.5 5.5 0  3 5.5 0  3.5 5.5 0  4 5.5 0  4.5 5.5 0  5 5.5 0  5.5 5.5 0  6 5.5 0  6.5 5.5 0  7 5.5 0  7.5 5.5 0  8 5.5 0  8.5 5.5 0  9 5.5 0  9.5 5.5 0  10 5.5 0  10.5 5.5 0  11 5.5 0  11.5 5.5 0  12 5.5 0  12.5 5.5 0  13 5.5 0  13.5 5.5 0  14 5.5 0  14.5 5.5 0  15 5.5 0  15.5 5.5 0  16 5.5 0  16.5 5.5 0  17 5.5 0  17.5 5.5 0  18 5.5 0  18.5 5.5 0  19 5.5 0  19.5 5.5 0  20 5.5 0  0 6 0  0.5 6 0  1 6 0  1.5 6 0  2 6 0  2.5 6 0  3 6 0  3.5 6 0  4 6 0  4.5 6 0  5 6 0  5.5 6 0  6 6 0  6.5 6 0  7 6 0  7.5 6 0  8 6 0  8.5 6 0  9 6 0  9.5 6 0  10 6 0  10.5 6 0  11 6 0  11.5 6 0  12 6 0  12.5 6 0  13 6 0  13.5 6 0  14 6 0  14.5 6 0  15 6 0  15.5 6 0  16 6 0  16.5 6 0  17 6 0  17.5 6 0  18 6 0  18.5 6 0  19 6 0  19.5 6 0  20 6 0  0 6.5 0  0.5 6.5 0  1 6.5 0  1.5 6.5 0  2 6.5 0  2.5 6.5 0  3 6.5 0  3.5 6.5 0  4 6.5 0  4.5 6.5 0  5 6.5 0  5.5 6.5 0  6 6.5 0  6.5 6.5 0  7 6.5 0  7.5 6.5 0  8 6.5 0  8.5 6.5 0  9 6.5 0  9.5 6.5 0  10 6.5 0  10.5 6.5 0  11 6.5 0  11.5 6.5 0  12 6.5 0  12.5 6.5 0  13 6.5 0  13.5 6.5 0  14 6.5 0  14.5 6.5 0  15 6.5 0  15.5 6.5 0  16 6.5 0  16.5 6.5 0  17 6.5 0  17.5 6.5 0  18 6.5 0  18.5 6.5 0  19 6.5 0  19.5 6.5 0  20 6.5 0  0 7 0  0.5 7 0  1 7 0  1.5 7 0  2 7 0  2.5 7 0  3 7 0  3.5 7 0  4 7 0  4.5 7 0  5 7 0  5.5 7 0  6 7 0  6.5 7 0  7 7 0  7.5 7 0  8 7 0  8.5 7 0  9 7 0  9.5 7 0  10 7 0  10.5 7 0  11 7 0  11.5 7 0  12 7 0  12.5 7 0  13 7 0  13.5 7 0  14 7 0  14.5 7 0  15 7 0  15.5 7 0  16 7 0  16.5 7 0  17 7 0  17.5 7 0  18 7 0  18.5 7 0  19 7 0  19.5 7 0  20 7 0  0 7.5 0  0.5 7.5 0  1 7.5 0  1.5 7.5 0  2 7.5 0  2.5 7.5 0  3 7.5 0  3.5 7.5 0  4 7.5 0  4.5 7.5 0  5 7.5 0  5.5 7.5 0  6 7.5 0  6.5 7.5 0  7 7.5 0  7.5 7.5 0  8 7.5 0  8.5 7.5 0  9 7.5 0  9.5 7.5 0  10 7.5 0  10.5 7.5 0  11 7.5 0  11.5 7.5 0  12 7.5 0  12.5 7.5 0  13 7.5 0  13.5 7.5 0  14 7.5 0  14.5 7.5 0  15 7.5 0  15.5 7.5 0  16 7.5 0  16.5 7.5 0  17 7.5 0  17.5 7.5 0  18 7.5 0  18.5 7.5 0  19 7.5 0  19.5 7.5 0  20 7.5 0  0 8 0  0.5 8 0  1 8 0  1.5 8 0  2 8 0  2.5 8 0  3 8 0  3.5 8 0  4 8 0  4.5 8 0  5 8 0  5.5 8 0  6 8 0  6.5 8 0  7 8 0  7.5 8 0  8 8 0  8.5 8 0  9 8 0  9.5 8 0  10 8 0  10.5 8 0  11 8 0  11.5 8 0  12 8 0  12.5 8 0  13 8 0  13.5 8 0  14 8 0  14.5 8 0  15 8 0  15.5 8 0  16 8 0  16.5 8 0  17 8 0  17.5 8 0  18 8 0  18.5 8 0  19 8 0  19.5 8 0  20 8 0  0 8.5 0  0.5 8.5 0  1 8.5 0  1.5 8.5 0  2 8.5 0  2.5 8.5 0  3 8.5 0  3.5 8.5 0  4 8.5 0  4.5 8.5 0  5 8.5 0  5.5 8.5 0  6 8.5 0  6.5 8.5 0  7 8.5 0  7.5 8.5 0  8 8.5 0  8.5 8.5 0  9 8.5 0  9.5 8.5 0  10 8.5 0  10.5 8.5 0  11 8.5 0  11.5 8.5 0  12 8.5 0  12.5 8.5 0  13 8.5 0  13.5 8.5 0  14 8.5 0  14.5 8.5 0  15 8.5 0  15.5 8.5 0  16 8.5 0  16.5 8.5 0  17 8.5 0  17.5 8.5 0  18 8.5 0  18.5 8.5 0  19 8.5 0  19.5 8.5 0  20 8.5 0  0 9 0  0.5 9 0  1 9 0  1.5 9 0  2 9 0  2.5 9 0  3 9 0  3.5 9 0  4 9 0  4.5 9 0  5 9 0  5.5 9 0  6 9 0  6.5 9 0  7 9 0  7.5 9 0  8 9 0  8.5 9 0  9 9 0  9.5 9 0  10 9 0  10.5 9 0  11 9 0  11.5 9 0  12 9 0  12.5 9 0  13 9 0  13.5 9 0  14 9 0  14.5 9 0  15 9 0  15.5 9 0  16 9 0  16.5 9 0  17 9 0  17.5 9 0  18 9 0  18.5 9 0  19 9 0  19.5 9 0  20 9 0  0 9.5 0  0.5 9.5 0  1 9.5 0  1.5 9.5 0  2 9.5 0  2.5 9.5 0  3 9.5 0  3.5 9.5 0  4 9.5 0  4.5 9.5 0  5 9.5 0  5.5 9.5 0  6 9.5 0  6.5 9.5 0  7 9.5 0  7.5 9.5 0  8 9.5 0  8.5 9.5 0  9 9.5 0  9.5 9.5 0  10 9.5 0  10.5 9.5 0  11 9.5 0  11.5 9.5 0  12 9.5 0  12.5 9.5 0  13 9.5 0  13.5 9.5 0  14 9.5 0  14.5 9.5 0  15 9.5 0  15.5 9.5 0  16 9.5 0  16.5 9.5 0  17 9.5 0  17.5 9.5 0  18 9.5 0  18.5 9.5 0  19 9.5 0  19.5 9.5 0  20 9.5 0  0 10 0  0.5 10 0  1 10 0  1.5 10 0  2 10 0  2.5 10 0  3 10 0  3.5 10 0  4 10 0  4.5 10 0  5 10 0  5.5 10 0  6 10 0  6.5 10 0  7 10 0  7.5 10 0  8 10 0  8.5 10 0  9 10 0  9.5 10 0  10 10 0  10.5 10 0  11 10 0  11.5 10 0  12 10 0  12.5 10 0  13 10 0  13.5 10 0  14 10 0  14.5 10 0  15 10 0  15.5 10 0  16 10 0  16.5 10 0  17 10 0  17.5 10 0  18 10 0  18.5 10 0  19 10 0  19.5 10 0  20 10 0  0 10.5 0  0.5 10.5 0  1 10.5 0  1.5 10.5 0  2 10.5 0  2.5 10.5 0  3 10.5 0  3.5 10.5 0  4 10.5 0  4.5 10.5 0  5 10.5 0  5.5 10.5 0  6 10.5 0  6.5 10.5 0  7 10.5 0  7.5 10.5 0  8 10.5 0  8.5 10.5 0  9 10.5 0  9.5 10.5 0  10 10.5 0  10.5 10.5 0  11 10.5 0  11.5 10.5 0  12 10.5 0  12.5 10.5 0  13 10.5 0  13.5 10.5 0  14 10.5 0  14.5 10.5 0  15 10.5 0  15.5 10.5 0  16 10.5 0  16.5 10.5 0  17 10.5 0  17.5 10.5 0  18 10.5 0  18.5 10.5 0  19 10.5 0  19.5 10.5 0  20 10.5 0  0 11 0  0.5 11 0  1 11 0  1.5 11 0  2 11 0  2.5 11 0  3 11 0  3.5 11 0  4 11 0  4.5 11 0  5 11 0  5.5 11 0  6 11 0  6.5 11 0  7 11 0  7.5 11 0  8 11 0  8.5 11 0  9 11 0  9.5 11 0  10 11 0  10.5 11 0  11 11 0  11.5 11 0  12 11 0  12.5 11 0  13 11 0  13.5 11 0  14 11 0  14.5 11 0  15 11 0  15.5 11 0  16 11 0  16.5 11 0  17 11 0  17.5 11 0  18 11 0  18.5 11 0  19 11 0  19.5 11 0  20 11 0  0 11.5 0  0.5 11.5 0  1 11.5 0  1.5 11.5 0  2 11.5 0  2.5 11.5 0  3 11.5 0  3.5 11.5 0  4 11.5 0  4.5 11.5 0  5 11.5 0  5.5 11.5 0  6 11.5 0  6.5 11.5 0  7 11.5 0  7.5 11.5 0  8 11.5 0  8.5 11.5 0  9 11.5 0  9.5 11.5 0  10 11.5 0  10.5 11.5 0  11 11.5 0  11.5 11.5 0  12 11.5 0  12.5 11.5 0  13 11.5 0  13.5 11.5 0  14 11.5 0  14.5 11.5 0  15 11.5 0  15.5 11.5 0  16 11.5 0  16.5 11.5 0  17 11.5 0  17.5 11.5 0  18 11.5 0  18.5 11.5 0  19 11.5 0  19.5 11.5 0  20 11.5 0  0 12 0  0.5 12 0  1 12 0  1.5 12 0  2 12 0  2.5 12 0  3 12 0  3.5 12 0  4 12 0  4.5 12 0  5 12 0  5.5 12 0  6 12 0  6.5 12 0  7 12 0  7.5 12 0  8 12 0  8.5 12 0  9 12 0  9.5 12 0  10 12 0  10.5 12 0  11 12 0  11.5 12 0  12 12 0  12.5 12 0  13 12 0  13.5 12 0  14 12 0  14.5 12 0  
[...]
<PointData  Scalars="f_5623-1"> 
<DataArray  type="Float64"  Name="f_5623-1"  format="ascii">-3.4273042489544775e-01  -3.4273044470765696e-01  -3.4273049483667256e-01  -3.4273058737359763e-01  -3.4273074182351854e-01  -3.4273098948986819e-01  -3.4273137911893409e-01  -3.4273198514517716e-01  -3.4273291978264631e-01  -3.4273435056014234e-01  -3.4273652545988381e-01  -3.4273980856550096e-01  -3.4274473007316858e-01  -3.4275205569268341e-01  -3.4276288187781168e-01  -3.4277876497258097e-01  -3.4280189420611668e-01  -3.4283532043032444e-01  -3.4288325442528605e-01  -3.4295145026668244e-01  -3.4304769032634402e-01  -3.4318238851348665e-01  -3.4336932679054333e-01  -3.4362653613170308e-01  -3.4397732617516280e-01  -3.4445145708928482e-01  -3.4508643199199690e-01  -3.4592886832578645e-01  -3.4703588221759485e-01  -3.4847639237971917e-01  -3.5033222233446271e-01  -3.5269885633570164e-01  -3.5568569198144179e-01  -3.5941563938577831e-01  -3.6402395130348020e-01  -3.6965623691036509e-01  -3.7646571507719917e-01  -3.8460989622587205e-01  -3.9424704415889572e-01  -4.0553300942087911e-01  -4.1861962938298575e-01  -3.4273044470765696e-01  -3.4273046153143993e-01  -3.4273051146883754e-01  -3.4273060461076732e-01  -3.4273076013389869e-01  -3.4273100941816143e-01  -3.4273140144363334e-01  -3.4273201100563710e-01  -3.4273295083143446e-01  -3.4273438916323251e-01  -3.4273657496147092e-01  -3.4273987363424385e-01  -3.4274481714749655e-01  -3.4275217354275461e-01  -3.4276304229971477e-01  -3.4277898362532283e-01  -3.4280219159260444e-01  -3.4283572300858345e-01  -3.4288379581423523e-01  -3.4295217248081161e-01  -3.4304864493505571e-01  -3.4318363757408921e-01  -3.4337094335089424e-01  -3.4362860404356144e-01  -3.4397993890989531e-01  -3.4445471521537618e-01  -3.4509043897566832e-01  -3.4593372437416287e-01  -3.4704167602445168e-01  -3.4848319088210039e-01  -3.5034005895776954e-01  -3.5270771867745787e-01  -3.5569551038087865e-01  -3.5942627816241285e-01  -3.6403520424606095e-01  -3.6966782703006373e-01  -3.7647729338305513e-01  -3.8462101703027690e-01  -3.9425703136780477e-01  -4.0554037461503534e-01  -4.1861962938298575e-01  -3.4273049483667256e-01  -3.4273051146883754e-01  -3.4273056158139314e-01  -3.4273065526443236e-01  -3.4273081166650132e-01  -3.4273106226193867e-01  -3.4273145623780144e-01  -3.4273206871242906e-01  -3.4273301287685465e-01  -3.4273445761924903e-01  -3.4273665278451815e-01  -3.4273996497488607e-01  -3.4274492774634802e-01  -3.4275231122713706e-01  -3.4276321759308798e-01  -3.4277921047623028e-01  -3.4280248822063514e-01  -3.4283611285051596e-01  -3.4288430853304525e-01  -3.4295284497284872e-01  -3.4304952223630808e-01  -3.4318477352597598e-01  -3.4337240084192588e-01  -3.4363045460008651e-01  -3.4398226137434568e-01  -3.4445759323444980e-01  -3.4509395703751655e-01  -3.4593796219893308e-01  -3.4704670124205672e-01  -3.4848905013394110e-01  -3.5034676782717539e-01  -3.5271525114401903e-01  -3.5570378870298802e-01  -3.5943516401573300e-01  -3.6404449120719490e-01  -3.6967723239848133e-01  -3.7648644256423625e-01  -3.8462940405631546e-01  -3.9426392390574388e-01  -4.0554463453637696e-01  -4.1861962938298575e-01  -3.4273058737359763e-01  -3.4273060461076732e-01  -3.4273065526443242e-01  -3.4273074956976224e-01  -3.4273090675653778e-01  -3.4273115842131058e-01  -3.4273155394851629e-01  -3.4273216875085294e-01  -3.4273311643833110e-01  -3.4273456648060080e-01  -3.4273676951599846e-01  -3.4274009321383064e-01  -3.4274507254491104e-01  -3.4275247948555654e-01  -3.4276341858718212e-01  -3.4277945648243385e-01  -3.4280279523290169e-01  -3.4283650136991245e-01  -3.4288480439207025e-01  -3.4295348013199933e-01  -3.4305033546046143e-01  -3.4318581081403116e-01  -3.4337371544760242e-01  -3.4363210644940240e-01  -3.4398431566285087e-01  -3.4446011798374343e-01  -3.4509701941658627e-01  -3.4594162348230978e-01  -3.4705101039172903e-01  -3.4849403615530561e-01  -3.5035243124449977e-01  -3.5272155512384445e-01  -3.5571065043999489e-01  -3.5944244684925997e-01  -3.6405199737533395e-01  -3.6968469519014613e-01  -3.7649351500068723e-01  -3.8463564046003246e-01  -3.9426875644954590e-01  -4.0554737677947639e-01  -4.1861962938298575e-01  -3.4273074182351854e-01  -3.4273076013389869e-01  -3.4273081166650132e-01  -3.4273090675653778e-01  -3.4273106472896581e-01  -3.4273131730745676e-01  -3.4273171406267577e-01  -3.4273233067585651e-01  -3.4273328113460461e-01  -3.4273473542923621e-01  -3.4273694490484996e-01  -3.4274027817645802e-01  -3.4274527146216960e-01  -3.4275269835843586e-01  -3.4276366548655468e-01  -3.4277974207598294e-01  -3.4280313338089263e-01  -3.4283690976893894e-01  -3.4288530522892086e-01  -3.4295410068824794e-01  -3.4305110858285132e-01  -3.4318677513775997e-01  -3.4337491523209379e-01  -3.4363359086348227e-01  -3.4398613734448874e-01  -3.4446233070610927e-01  -3.4509967472515635e-01  -3.4594476623418807e-01  -3.4705467323163108e-01  -3.4849823309855577e-01  -3.5035715068914236e-01  -3.5272675274753212e-01  -3.5571624250037381e-01  -3.5944830433884140e-01  -3.6405794125338631e-01  -3.6969049262658688e-01  -3.7649887668484572e-01  -3.8464022082498939e-01  -3.9427216477123350e-01  -4.0554922074696448e-01  -4.1861962938298575e-01  -3.4273098948986819e-01  -3.4273100941816143e-01  -3.4273106226193867e-01  -3.4273115842131052e-01  -3.4273131730745676e-01  -3.4273157076441685e-01  -3.4273196853516447e-01  -3.4273258654489441e-01  -3.4273353912048332e-01  -3.4273499671640900e-01  -3.4273721130359375e-01  -3.4274055232905282e-01  -3.4274555710106969e-01  -3.4275300062246900e-01  -3.4276399129810059e-01  -3.4278010057675923e-01  -3.4280353641582006e-01  -3.4283737239604090e-01  -3.4288584621806306e-01  -3.4295474295289274e-01  -3.4305187946772980e-01  -3.4318770646321645e-01  -3.4337604297575397e-01  -3.4363495434602537e-01  -3.4398777778402650e-01  -3.4446428902110693e-01  -3.4510198850494506e-01  -3.4594746586323999e-01  -3.4705777724944920e-01  -3.4850174299544850e-01  -3.5036104546476621e-01  -3.5273098367014977e-01  -3.5572072857190612e-01  -3.5945292897616027e-01  -3.6406255066639959e-01  -3.6969489643961534e-01  -3.7650285182524690e-01  -3.8464352112103117e-01  -3.9427454151356950e-01  -4.0555046276122536e-01  -4.1861962938298575e-01  -3.4273137911893403e-01  -3.4273140144363334e-01  -3.4273145623780144e-01  -3.4273155394851629e-01  -3.4273171406267577e-01  -3.4273196853516447e-01  -3.4273236726713729e-01  -3.4273298640522437e-01  -3.4273394058097223e-01  -3.4273540066177166e-01  -3.4273761917046758e-01  -3.4274096628175232e-01  -3.4274598024950920e-01  -3.4275343728602159e-01  -3.4276444731596484e-01  -3.4278058366019570e-01  -3.4280405652993040e-01  -3.4283794214825736e-01  -3.4288648121713194e-01  -3.4295546208626493e-01  -3.4305270502798069e-01  -3.4318866403733977e-01  -3.4337716099785776e-01  -3.4363626320806134e-01  -3.4398930840547348e-01  -3.4446607080201458e-01  -3.4510404663174438e-01  -3.4594981800550234e-01  -3.4706042977680840e-01  -3.4850468695027847e-01  -3.5036425263473930e-01  -3.5273440319734933e-01  -3.5572428459413391e-01  -3.5945651981633231e-01  -3.6406605009393173e-01  -3.6969815760210345e-01  -3.7650571471943428e-01  -3.8464582503898387e-01  -3.9427614456477778e-01  -4.0555127028729454e-01  -4.1861962938298575e-01  -3.4273198514517716e-01  -3.4273201100563710e-01  -3.4273206871242901e-01  -3.4273216875085294e-01  -3.4273233067585646e-01  -3.4273258654489441e-01  -3.4273298640522432e-01  -3.4273360660578428e-01  -3.4273456205302050e-01  -3.4273602398238795e-01  -3.4273824540306819e-01  -3.4274159712391478e-01  -3.4274661821398489e-01  -3.4275408591671502e-01  -3.4276511143738309e-01  -3.4278126965378297e-01  -3.4280477262346692e-01  -3.4283869869494282e-01  -3.4288729092921794e-01  -3.4295634017475546e-01  -3.4305366918624713e-01  -3.4318973419458415e-01  -3.4337835876117184e-01  -3.4363761091315653e-01  -3.4399082771025152e-01  -3.4446778078811802e-01  -3.4510596143001498e-01  -3.4595194403236856e-01  -3.4706276275659653e-01  -3.4850720899481480e-01  -3.5036692974264705e-01  -3.5273718360392220e-01  -3.5572709843261313e-01  -3.5945928053611859e-01  -3.6406865803249738e-01  -3.6970050605851440e-01  -3.7650769886456725e-01  -3.8464735399506300e-01  -3.9427715678259379e-01  -4.0555175141253935e-01  -4.1861962938298575e-01  -3.4273291978264631e-01  -3.4273295083143446e-01  -3.4273301287685465e-01  -3.4273311643833110e-01  -3.4273328113460461e-01  -3.4273353912048327e-01  -3.4273394058097223e-01  -3.4273456205302050e-01  -3.4273551869434454e-01  -3.4273698207128539e-01  -3.4273920562333154e-01  -3.4274256071197756e-01  -3.4274758710624492e-01  -3.4275506292189339e-01  -3.4276610043061756e-01  -3.4278227578417558e-01  -3.4280580251997084e-01  -3.4283976064674765e-01  -3.4288839500647394e-01  -3.4295749824435673e-01  -3.4305489476692264e-01  -3.4319104208794560e-01  -3.4337976439366247e-01  -3.4363912933168239e-01  -3.4399247219552925e-01  -3.4446956108778748e-01  -3.4510788167009915e-01  -3.4595400043954994e-01  -3.4706494140958200e-01  -3.4850948391008169e-01  -3.5036926167222343e-01  -3.5273951996132186e-01  -3.5572937474922101e-01  -3.5946142377285695e-01  -3.6407059193220659e-01  -3.6970215853846738e-01  -3.7650901123197866e-01  -3.8464829150599800e-01  -3.9427771966733344e-01  -4.0555198479118409e-01  -4.1861962938298575e-01  -3.4273435056014234e-01  -3.4273438916323251e-01  -3.4273445761924903e-01  -3.4273456648060080e-01  -3.4273473542923621e-01  -3.4273499671640900e-01  -3.4273540066177166e-01  -3.4273602398238795e-01  -3.4273698207128545e-01  -3.4273844679761706e-01  -3.4274067198596675e-01  -3.4274402948193194e-01  -3.4274905965508229e-01  -3.4275654135413613e-01  -3.4276758772722171e-01  -3.4278377594726339e-01  -3.4280732070249198e-01  -3.4284130324269824e-01  -3.4288996966818192e-01  -3.4295911378410610e-01  -3.4305656089246161e-01  -3.4319276891757694e-01  -3.4338156169974648e-01  -3.4364100547509208e-01  -3.4399443274146907e-01  -3.4447160713816694e-01  -3.4511000801005332e-01  -3.4595619367299285e-01  -3.4706717834328049e-01  -3.4851173052427653e-01  -3.5037147306931310e-01  -3.5274164168998073e-01  -3.5573134583775712e-01  -3.5946318165810803e-01  -3.6407207923843127e-01  -3.6970333136181505e-01  -3.7650984825107248e-01  -3.8464880289870512e-01  -3.9427795448323660e-01  -4.0555203511506799e-01  -4.1861962938298575e-01  -3.4273652545988381e-01  -3.4273657496147092e-01  -3.4273665278451815e-01  -3.4273676951599846e-01  -3.4273694490484996e-01  -3.4273721130359375e-01  -3.4273761917046758e-01  -3.4273824540306819e-01  -3.4273920562333154e-01  -3.4274067198596675e-01  -3.4274289866764740e-01  -3.4274625794339536e-01  -3.4275129069985388e-01  -3.4275877639794528e-01  -3.4276982889424684e-01  -3.4278602615622394e-01  -3.4280958372499731e-01  -3.4284358370871776e-01  -3.4289227298530683e-01  -3.4296144592955441e-01  -3.4305892803132054e-01  -3.4319517680012723e-01  -3.4338401479809261e-01  -3.4364350583835029e-01  -3.4399697858288442e-01  -3.4447419121902628e-01  -3.4511261595397658e-01  -3.4595880242592159e-01  -3.4706975507949051e-01  -3.4851423237071172e-01  -3.5037384805688465e-01  -3.5274383131474213e-01  -3.5573328950191901e-01  -3.5946482304485605e-01  -3.6407337435820586e-01  -3.6970425761989412e-01  -3.7651041348312031e-01  -3.8464905297817997e-01  -3.9427797790285690e-01  -4.0555196295702101e-01  -4.1861962938298575e-01  -3.4273980856550096e-01  -3.4273987363424385e-01  -3.4273996497488607e-01  -3.4274009321383064e-01  -3.4274027817645797e-01  -3.4274055232905282e-01  -3.4274096628175232e-01  -3.4274159712391478e-01  -3.4274256071197756e-01  -3.4274402948193194e-01  -3.4274625794339536e-01  -3.4274961876087423e-01  -3.4275465327034293e-01  -3.4276214144110589e-01  -3.4277319768858855e-01  -3.4278940056820539e-01  -3.4281296619771490e-01  -3.4284697718386753e-01  -3.4289568072454552e-01  -3.4296487119479230e-01  -3.4306237357982960e-01  -3.4319864415236900e-01  -3.4338750324727613e-01  -3.4364701119466873e-01  -3.4400049168557528e-01  -3.4447769630788450e-01  -3.4511608906786562e-01  -3.4596221008367889e-01  -3.4707305358653184e-01  -3.4851736816323747e-01  -3.5037675951839675e-01  -3.5274645244586889e-01  -3.5573555566571841e-01  -3.5946667872930887e-01  -3.6407478250327074e-01  -3.6970520959111197e-01  -3.7651093831915894e-01  -3.8464922420850006e-01  -3.9427791614474300e-01  -4.0555183275487605e-01  -4.1861962938298575e-01  -3.4274473007316858e-01  -3.4274481714749655e-01  -3.4274492774634802e-01  -3.4274507254491104e-01  -3.4274527146216960e-01  -3.4274555710106963e-01  -3.4274598024950920e-01  -3.4274661821398489e-01  -3.4274758710624492e-01  -3.4274905965508223e-01  -3.4275129069985388e-01  -3.4275465327034293e-01  -3.4275968909933141e-01  -3.4276717857509870e-01  -3.4277823653556255e-01  -3.4279444192901454e-01  -3.4281801118245997e-01  -3.4285202704614243e-01  -3.4290073657820236e-01  -3.4296993357201383e-01  -3.4306744178699999e-01  -3.4320371538446087e-01  -3.4339257143588631e-01  -3.4365206559344003e-01  -3.4400551524311745e-01  -3.4448266394442645e-01  -3.4512096605641795e-01  -3.4596695083285195e-01  -3.4707760121643505e-01  -3.4852165533557222e-01  -3.5038071099620455e-01  -3.5274998978183375e-01  -3.5573860421760500e-01  -3.5946917685911323e-01  -3.6407669234515178e-01  -3.6970652822827454e-01  -3.7651170769698827e-01  -3.8464953777428990e-01  -3.9427792019443408e-01  -4.0555172089372493e-01  -4.1861962938298575e-01  -3.4275205569268341e-01  -3.4275217354275461e-01  -3.4275231122713706e-01  -3.4275247948555659e-01  -3.4275269835843586e-01  -3.4275300062246900e-01  -3.4275343728602159e-01  -3.4275408591671502e-01  -3.4275506292189339e-01  -3.4275654135413608e-01  -3.4275877639794528e-01  -3.4276214144110589e-01  -3.4276717857509870e-01  -3.4277466852872795e-01  -3.4278572643239968e-01  -3.4280193143242732e-01  -3.4282549998963191e-01  -3.4285951462334796e-01  -3.4290822175750829e-01  -3.4297741396584241e-01  -3.4307491297562287e-01  -3.4321116983752309e-01  -3.4339999714650160e-01  -3.4365944443663643e-01  -3.4401282112338050e-01  -3.4448986087193800e-01  -3.4512800638680824e-01  -3.4597377401337531e-01  -3.4708413348663125e-01  -3.4852781090689006e-01  -3.5038639524726717e-01  -3.5275510491259393e-01  -3.5574305756801838e-01  -3.5947289169491775e-01  -3.6407962035943625e-01  -3.6970866237020439e-01  -3.7651309334558952e-01  -3.8465027989946737e-01  -3.9427818417087940e-01  -4.0555172518335847e-01  -4.1861962938298575e-01  -3.4276288187781173e-01  -3.4276304229971483e-01  -3.4276321759308803e-01  -3.4276341858718212e-01  -3.4276366548655474e-01  -3.4276399129810059e-01  -3.4276444731596484e-01  -3.4276511143738309e-01  -3.4276610043061756e-01  -3.4276758772722171e-01  -3.4276982889424684e-01  -3.4277319768858855e-01  -3.4277823653556255e-01  -3.4278572643239968e-01  -3.4279678266929126e-01  -3.4281298438119501e-01  -3.4283654775731037e-01  -3.4287055466129757e-01  -3.4291925031124254e-01  -3.4298842531083606e-01  -3.4308589839037756e-01  -3.4322211627268812e-01  -3.4341088556918897e-01  -3.4367024786716188e-01  -3.4402350244201035e-01  -3.4450037055843152e-01  -3.4513828046418860e-01  -3.4598373259131920e-01  -3.4709368042149857e-01  -3.4853683518545797e-01  -3.5039477471876601e-01  -3.5276271289003652e-01  -3.5574977254864737e-01  -3.5947860998354314e-01  -3.6408427073142940e-01  -3.6971222115941249e-01  -3.7651559763486714e-01  -3.8465183603389180e-01  -3.9427896882391678e-01  -4.0555197684091143e-01  -4.1861962938298575e-01  -3.4277876497258097e-01  -3.4277898362532289e-01  -3.4277921047623033e-01  -3.4277945648243391e-01  -3.4277974207598294e-01  -3.4278010057675923e-01  -3.4278058366019570e-01  -3.4278126965378292e-01  -3.4278227578417558e-01  -3.4278377594726339e-01  -3.4278602615622394e-01  -3.4278940056820539e-01  -3.4279444192901454e-01  -3.4280193143242732e-01  -3.4281298438119501e-01  -3.4282917965590404e-01  -3.4285273281027823e-01  -3.4288672453701097e-01  -3.4293539814463864e-01  -3.4300454133088942e-01  -3.4310196861047648e-01  -3.4323812082121552e-01  -3.4342679663702691e-01  -3.4368602729231484e-01  -3.4403909902052232e-01  -3.4451571726861130e-01  -3.4515329191685518e-01  -3.4599830316384395e-01  -3.4710768367849498e-01  -3.4855012530102580e-01  -3.5040719064696579e-01  -3.5277408592413600e-01  -3.5575993760856756e-01  -3.5948742043777487e-01  -3.6409161580402349e-01  -3.6971804407725511e-01  -3.7651991180514743e-01  -3.8465473594903454e-01  -3.9428063233538962e-01  -4.0555265612520519e-01  -4.1861962938298575e-01  -3.4280189420611668e-01  -3.4280219159260444e-01  -3.4280248822063514e-01  -3.4280279523290169e-01  -3.4280313338089263e-01  -3.4280353641582006e-01  -3.4280405652993040e-01  -3.4280477262346687e-01  -3.4280580251997084e-01  -3.4280732070249192e-01  -3.4280958372499731e-01  -3.4281296619771490e-01  -3.4281801118245997e-01  -3.4282549998963191e-01  -3.4283654775731037e-01  -3.4285273281027823e-01  -3.4287626960783174e-01  -3.4291023701403622e-01  -3.4295887552114113e-01  -3.4302796870462821e-01  -3.4312532526706274e-01  -3.4326137810459190e-01  -3.4344991535120106e-01  -3.4370895465499585e-01  -3.4406176526875093e-01  -3.4453803213005751e-01  -3.4517514130795274e-01  -3.4601954664879919e-01  -3.4712815340043107e-01  -3.4856962724094304e-01  -3.5042550912305842e-01  -3.5279099214449983e-01  -3.5577520276324948e-01  -3.5950083321010978e-01  -3.6410300329663681e-01  -3.6972729407091159e-01  -3.7652699319056399e-01  -3.8465971337827604e-01  -3.9428367095335992e-01  -4.0555401292655258e-01  -4.1861962938298575e-01  -3.4283532043032439e-01  -3.4283572300858345e-01  -3.4283611285051596e-01  -3.4283650136991245e-01  -3.4283690976893894e-01  -3.4283737239604090e-01  -3.4283794214825736e-01  -3.4283869869494282e-01  -3.4283976064674765e-01  -3.4284130324269824e-01  -3.4284358370871776e-01  -3.4284697718386759e-01  -3.4285202704614243e-01  -3.4285951462334796e-01  -3.4287055466129757e-01  -3.4288672453701097e-01  -3.4291023701403628e-01  -3.4294416826105584e-01  -3.4299275475276764e-01  -3.4306177432309759e-01  -3.4315902772661533e-01  -3.4329493715312681e-01  -3.4348327668091017e-01  -3.4374204598032926e-01  -3.4409449194256869e-01  -3.4457027254235589e-01  -3.4520674248710925e-01  -3.4605032069458908e-01  -3.4715787559853284e-01  -3.4859803689848529e-01  -3.5045231426034046e-01  -3.5281587909661649e-01  -3.5579785139735853e-01  -3.5952093777817262e-01  -3.6412029790478956e-01  -3.6974158044004568e-01  -3.7653816702254411e-01  -3.8466778456450085e-01  -3.9428877246396643e-01  -4.0555639384734621e-01  -4.1861962938298575e-01  -3.4288325442528605e-01  -3.4288379581423517e-01  -3.4288430853304519e-01  -3.4288480439207025e-01  -3.4288530522892086e-01  -3.4288584621806306e-01  -3.4288648121713194e-01  -3.4288729092921794e-01  -3.4288839500647394e-01  -3.4288996966818197e-01  -3.4289227298530683e-01  -3.4289568072454552e-01  -3.4290073657820241e-01  -3.4290822175750829e-01  -3.4291925031124254e-01  -3.4293539814463864e-01  -3.4295887552114118e-01  -3.4299275475276764e-01  -3.4304126668361440e-01  -3.4311018122602005e-01  -3.4320728830307334e-01  -3.4334299565483128e-01  -3.4353105852873961e-01  -3.4378945263315347e-01  -3.4414139513784819e-01  -3.4461650818956374e-01  -3.4525210470694517e-01  -3.4609455675402956e-01  -3.4720068276985783e-01  -3.4863906252252153e-01  -3.5049116044601242e-01  -3.5285211344053197e-01  -3.5583102474523204e-01  -3.5955060927596572e-01  -3.6414606636365182e-01  -3.6976311944349693e-01  -3.7655525947395585e-01  -3.8468035090370362e-01  -3.9429688606340874e-01  -4.0556027758926005e-01  -4.1861962938298575e-01  -3.4295145026668239e-01  -3.4295217248081161e-01  -3.4295284497284872e-01  -3.4295348013199928e-01  -3.4295410068824794e-01  -3.4295474295289274e-01  -3.4295546208626498e-01  -3.4295634017475546e-01  -3.4295749824435678e-01  -3.4295911378410610e-01  -3.4296144592955441e-01  -3.4296487119479235e-01  -3.4296993357201389e-01  -3.4297741396584241e-01  -3.4298842531083612e-01  -3.4300454133088948e-01  -3.4302796870462826e-01  -3.4306