<?xml version="1.0"?>
<VTKFile type="UnstructuredGrid"  version="0.1"  >
<UnstructuredGrid>
<Piece  NumberOfPoints="1681" NumberOfCells="3200">
<Points>
<DataArray  type="Float64"  NumberOfComponents="3"  format="ascii">0 0 0  0.5 0 0  1 0 0  1.5 0 0  2 0 0  2.5 0 0  3 0 0  3.5 0 0  4 0 0  4.5 0 0  5 0 0  5.5 0 0  6 0 0  6.5 0 0  7 0 0  7.5 0 0  8 0 0  8.5 0 0  9 0 0  9.5 0 0  10 0 0  10.5 0 0  11 0 0  11.5 0 0  12 0 0  12.5 0 0  13 0 0  13.5 0 0  14 0 0  14.5 0 0  15 0 0  15.5 0 0  16 0 0  16.5 0 0  17 0 0  17.5 0 0  18 0 0  18.5 0 0  19 0 0  19.5 0 0  20 0 0  0 0.5 0  0.5 0.5 0  1 0.5 0  1.5 0.5 0  2 0.5 0  2.5 0.5 0  3 0.5 0  3.5 0.5 0  4 0.5 0  4.5 0.5 0  5 0.5 0  5.5 0.5 0  6 0.5 0  6.5 0.5 0  7 0.5 0  7.5 0.5 0  8 0.5 0  8.5 0.5 0  9 0.5 0  9.5 0.5 0  10 0.5 0  10.5 0.5 0  11 0.5 0  11.5 0.5 0  12 0.5 0  12.5 0.5 0  13 0.5 0  13.5 0.5 0  14 0.5 0  14.5 0.5 0  15 0.5 0  15.5 0.5 0  16 0.5 0  16.5 0.5 0  17 0.5 0  17.5 0.5 0  18 0.5 0  18.5 0.5 0  19 0.5 0  19.5 0.5 0  20 0.5 0  0 1 0  0.5 1 0  1 1 0  1.5 1 0  2 1 0  2.5 1 0  3 1 0  3.5 1 0  4 1 0  4.5 1 0  5 1 0  5.5 1 0  6 1 0  6.5 1 0  7 1 0  7.5 1 0  8 1 0  8.5 1 0  9 1 0  9.5 1 0  10 1 0  10.5 1 0  11 1 0  11.5 1 0  12 1 0  12.5 1 0  13 1 0  13.5 1 0  14 1 0  14.5 1 0  15 1 0  15.5 1 0  16 1 0  16.5 1 0  17 1 0  17.5 1 0  18 1 0  18.5 1 0  19 1 0  19.5 1 0  20 1 0  0 1.5 0  0.5 1.5 0  1 1.5 0  1.5 1.5 0  2 1.5 0  2.5 1.5 0  3 1.5 0  3.5 1.5 0  4 1.5 0  4.5 1.5 0  5 1.5 0  5.5 1.5 0  6 1.5 0  6.5 1.5 0  7 1.5 0  7.5 1.5 0  8 1.5 0  8.5 1.5 0  9 1.5 0  9.5 1.5 0  10 1.5 0  10.5 1.5 0  11 1.5 0  11.5 1.5 0  12 1.5 0  12.5 1.5 0  13 1.5 0  13.5 1.5 0  14 1.5 0  14.5 1.5 0  15 1.5 0  15.5 1.5 0  16 1.5 0  16.5 1.5 0  17 1.5 0  17.5 1.5 0  18 1.5 0  18.5 1.5 0  19 1.5 0  19.5 1.5 0  20 1.5 0  0 2 0  0.5 2 0  1 2 0  1.5 2 0  2 2 0  2.5 2 0  3 2 0  3.5 2 0  4 2 0  4.5 2 0  5 2 0  5.5 2 0  6 2 0  6.5 2 0  7 2 0  7.5 2 0  8 2 0  8.5 2 0  9 2 0  9.5 2 0  10 2 0  10.5 2 0  11 2 0  11.5 2 0  12 2 0  12.5 2 0  13 2 0  13.5 2 0  14 2 0  14.5 2 0  15 2 0  15.5 2 0  16 2 0  16.5 2 0  17 2 0  17.5 2 0  18 2 0  18.5 2 0  19 2 0  19.5 2 0  20 2 0  0 2.5 0  0.5 2.5 0  1 2.5 0  1.5 2.5 0  2 2.5 0  2.5 2.5 0  3 2.5 0  3.5 2.5 0  4 2.5 0  4.5 2.5 0  5 2.5 0  5.5 2.5 0  6 2.5 0  6.5 2.5 0  7 2.5 0  7.5 2.5 0  8 2.5 0  8.5 2.5 0  9 2.5 0  9.5 2.5 0  10 2.5 0  10.5 2.5 0  11 2.5 0  11.5 2.5 0  12 2.5 0  12.5 2.5 0  13 2.5 0  13.5 2.5 0  14 2.5 0  14.5 2.5 0  15 2.5 0  15.5 2.5 0  16 2.5 0  16.5 2.5 0  17 2.5 0  17.5 2.5 0  18 2.5 0  18.5 2.5 0  19 2.5 0  19.5 2.5 0  20 2.5 0  0 3 0  0.5 3 0  1 3 0  1.5 3 0  2 3 0  2.5 3 0  3 3 0  3.5 3 0  4 3 0  4.5 3 0  5 3 0  5.5 3 0  6 3 0  6.5 3 0  7 3 0  7.5 3 0  8 3 0  8.5 3 0  9 3 0  9.5 3 0  10 3 0  10.5 3 0  11 3 0  11.5 3 0  12 3 0  12.5 3 0  13 3 0  13.5 3 0  14 3 0  14.5 3 0  15 3 0  15.5 3 0  16 3 0  16.5 3 0  17 3 0  17.5 3 0  18 3 0  18.5 3 0  19 3 0  19.5 3 0  20 3 0  0 3.5 0  0.5 3.5 0  1 3.5 0  1.5 3.5 0  2 3.5 0  2.5 3.5 0  3 3.5 0  3.5 3.5 0  4 3.5 0  4.5 3.5 0  5 3.5 0  5.5 3.5 0  6 3.5 0  6.5 3.5 0  7 3.5 0  7.5 3.5 0  8 3.5 0  8.5 3.5 0  9 3.5 0  9.5 3.5 0  10 3.5 0  10.5 3.5 0  11 3.5 0  11.5 3.5 0  12 3.5 0  12.5 3.5 0  13 3.5 0  13.5 3.5 0  14 3.5 0  14.5 3.5 0  15 3.5 0  15.5 3.5 0  16 3.5 0  16.5 3.5 0  17 3.5 0  17.5 3.5 0  18 3.5 0  18.5 3.5 0  19 3.5 0  19.5 3.5 0  20 3.5 0  0 4 0  0.5 4 0  1 4 0  1.5 4 0  2 4 0  2.5 4 0  3 4 0  3.5 4 0  4 4 0  4.5 4 0  5 4 0  5.5 4 0  6 4 0  6.5 4 0  7 4 0  7.5 4 0  8 4 0  8.5 4 0  9 4 0  9.5 4 0  10 4 0  10.5 4 0  11 4 0  11.5 4 0  12 4 0  12.5 4 0  13 4 0  13.5 4 0  14 4 0  14.5 4 0  15 4 0  15.5 4 0  16 4 0  16.5 4 0  17 4 0  17.5 4 0  18 4 0  18.5 4 0  19 4 0  19.5 4 0  20 4 0  0 4.5 0  0.5 4.5 0  1 4.5 0  1.5 4.5 0  2 4.5 0  2.5 4.5 0  3 4.5 0  3.5 4.5 0  4 4.5 0  4.5 4.5 0  5 4.5 0  5.5 4.5 0  6 4.5 0  6.5 4.5 0  7 4.5 0  7.5 4.5 0  8 4.5 0  8.5 4.5 0  9 4.5 0  9.5 4.5 0  10 4.5 0  10.5 4.5 0  11 4.5 0  11.5 4.5 0  12 4.5 0  12.5 4.5 0  13 4.5 0  13.5 4.5 0  14 4.5 0  14.5 4.5 0  15 4.5 0  15.5 4.5 0  16 4.5 0  16.5 4.5 0  17 4.5 0  17.5 4.5 0  18 4.5 0  18.5 4.5 0  19 4.5 0  19.5 4.5 0  20 4.5 0  0 5 0  0.5 5 0  1 5 0  1.5 5 0  2 5 0  2.5 5 0  3 5 0  3.5 5 0  4 5 0  4.5 5 0  5 5 0  5.5 5 0  6 5 0  6.5 5 0  7 5 0  7.5 5 0  8 5 0  8.5 5 0  9 5 0  9.5 5 0  10 5 0  10.5 5 0  11 5 0  11.5 5 0  12 5 0  12.5 5 0  13 5 0  13.5 5 0  14 5 0  14.5 5 0  15 5 0  15.5 5 0  16 5 0  16.5 5 0  17 5 0  17.5 5 0  18 5 0  18.5 5 0  19 5 0  19.5 5 0  20 5 0  0 5.5 0  0.5 5.5 0  1 5.5 0  1.5 5.5 0  2 5.5 0  2.5 5.5 0  3 5.5 0  3.5 5.5 0  4 5.5 0  4.5 5.5 0  5 5.5 0  5.5 5.5 0  6 5.5 0  6.5 5.5 0  7 5.5 0  7.5 5.5 0  8 5.5 0  8.5 5.5 0  9 5.5 0  9.5 5.5 0  10 5.5 0  10.5 5.5 0  11 5.5 0  11.5 5.5 0  12 5.5 0  12.5 5.5 0  13 5.5 0  13.5 5.5 0  14 5.5 0  14.5 5.5 0  15 5.5 0  15.5 5.5 0  16 5.5 0  16.5 5.5 0  17 5.5 0  17.5 5.5 0  18 5.5 0  18.5 5.5 0  19 5.5 0  19.5 5.5 0  20 5.5 0  0 6 0  0.5 6 0  1 6 0  1.5 6 0  2 6 0  2.5 6 0  3 6 0  3.5 6 0  4 6 0  4.5 6 0  5 6 0  5.5 6 0  6 6 0  6.5 6 0  7 6 0  7.5 6 0  8 6 0  8.5 6 0  9 6 0  9.5 6 0  10 6 0  10.5 6 0  11 6 0  11.5 6 0  12 6 0  12.5 6 0  13 6 0  13.5 6 0  14 6 0  14.5 6 0  15 6 0  15.5 6 0  16 6 0  16.5 6 0  17 6 0  17.5 6 0  18 6 0  18.5 6 0  19 6 0  19.5 6 0  20 6 0  0 6.5 0  0.5 6.5 0  1 6.5 0  1.5 6.5 0  2 6.5 0  2.5 6.5 0  3 6.5 0  3.5 6.5 0  4 6.5 0  4.5 6.5 0  5 6.5 0  5.5 6.5 0  6 6.5 0  6.5 6.5 0  7 6.5 0  7.5 6.5 0  8 6.5 0  8.5 6.5 0  9 6.5 0  9.5 6.5 0  10 6.5 0  10.5 6.5 0  11 6.5 0  11.5 6.5 0  12 6.5 0  12.5 6.5 0  13 6.5 0  13.5 6.5 0  14 6.5 0  14.5 6.5 0  15 6.5 0  15.5 6.5 0  16 6.5 0  16.5 6.5 0  17 6.5 0  17.5 6.5 0  18 6.5 0  18.5 6.5 0  19 6.5 0  19.5 6.5 0  20 6.5 0  0 7 0  0.5 7 0  1 7 0  1.5 7 0  2 7 0  2.5 7 0  3 7 0  3.5 7 0  4 7 0  4.5 7 0  5 7 0  5.5 7 0  6 7 0  6.5 7 0  7 7 0  7.5 7 0  8 7 0  8.5 7 0  9 7 0  9.5 7 0  10 7 0  10.5 7 0  11 7 0  11.5 7 0  12 7 0  12.5 7 0  13 7 0  13.5 7 0  14 7 0  14.5 7 0  15 7 0  15.5 7 0  16 7 0  16.5 7 0  17 7 0  17.5 7 0  18 7 0  18.5 7 0  19 7 0  19.5 7 0  20 7 0  0 7.5 0  0.5 7.5 0  1 7.5 0  1.5 7.5 0  2 7.5 0  2.5 7.5 0  3 7.5 0  3.5 7.5 0  4 7.5 0  4.5 7.5 0  5 7.5 0  5.5 7.5 0  6 7.5 0  6.5 7.5 0  7 7.5 0  7.5 7.5 0  8 7.5 0  8.5 7.5 0  9 7.5 0  9.5 7.5 0  10 7.5 0  10.5 7.5 0  11 7.5 0  11.5 7.5 0  12 7.5 0  12.5 7.5 0  13 7.5 0  13.5 7.5 0  14 7.5 0  14.5 7.5 0  15 7.5 0  15.5 7.5 0  16 7.5 0  16.5 7.5 0  17 7.5 0  17.5 7.5 0  18 7.5 0  18.5 7.5 0  19 7.5 0  19.5 7.5 0  20 7.5 0  0 8 0  0.5 8 0  1 8 0  1.5 8 0  2 8 0  2.5 8 0  3 8 0  3.5 8 0  4 8 0  4.5 8 0  5 8 0  5.5 8 0  6 8 0  6.5 8 0  7 8 0  7.5 8 0  8 8 0  8.5 8 0  9 8 0  9.5 8 0  10 8 0  10.5 8 0  11 8 0  11.5 8 0  12 8 0  12.5 8 0  13 8 0  13.5 8 0  14 8 0  14.5 8 0  15 8 0  15.5 8 0  16 8 0  16.5 8 0  17 8 0  17.5 8 0  18 8 0  18.5 8 0  19 8 0  19.5 8 0  20 8 0  0 8.5 0  0.5 8.5 0  1 8.5 0  1.5 8.5 0  2 8.5 0  2.5 8.5 0  3 8.5 0  3.5 8.5 0  4 8.5 0  4.5 8.5 0  5 8.5 0  5.5 8.5 0  6 8.5 0  6.5 8.5 0  7 8.5 0  7.5 8.5 0  8 8.5 0  8.5 8.5 0  9 8.5 0  9.5 8.5 0  10 8.5 0  10.5 8.5 0  11 8.5 0  11.5 8.5 0  12 8.5 0  12.5 8.5 0  13 8.5 0  13.5 8.5 0  14 8.5 0  14.5 8.5 0  15 8.5 0  15.5 8.5 0  16 8.5 0  16.5 8.5 0  17 8.5 0  17.5 8.5 0  18 8.5 0  18.5 8.5 0  19 8.5 0  19.5 8.5 0  20 8.5 0  0 9 0  0.5 9 0  1 9 0  1.5 9 0  2 9 0  2.5 9 0  3 9 0  3.5 9 0  4 9 0  4.5 9 0  5 9 0  5.5 9 0  6 9 0  6.5 9 0  7 9 0  7.5 9 0  8 9 0  8.5 9 0  9 9 0  9.5 9 0  10 9 0  10.5 9 0  11 9 0  11.5 9 0  12 9 0  12.5 9 0  13 9 0  13.5 9 0  14 9 0  14.5 9 0  15 9 0  15.5 9 0  16 9 0  16.5 9 0  17 9 0  17.5 9 0  18 9 0  18.5 9 0  19 9 0  19.5 9 0  20 9 0  0 9.5 0  0.5 9.5 0  1 9.5 0  1.5 9.5 0  2 9.5 0  2.5 9.5 0  3 9.5 0  3.5 9.5 0  4 9.5 0  4.5 9.5 0  5 9.5 0  5.5 9.5 0  6 9.5 0  6.5 9.5 0  7 9.5 0  7.5 9.5 0  8 9.5 0  8.5 9.5 0  9 9.5 0  9.5 9.5 0  10 9.5 0  10.5 9.5 0  11 9.5 0  11.5 9.5 0  12 9.5 0  12.5 9.5 0  13 9.5 0  13.5 9.5 0  14 9.5 0  14.5 9.5 0  15 9.5 0  15.5 9.5 0  16 9.5 0  16.5 9.5 0  17 9.5 0  17.5 9.5 0  18 9.5 0  18.5 9.5 0  19 9.5 0  19.5 9.5 0  20 9.5 0  0 10 0  0.5 10 0  1 10 0  1.5 10 0  2 10 0  2.5 10 0  3 10 0  3.5 10 0  4 10 0  4.5 10 0  5 10 0  5.5 10 0  6 10 0  6.5 10 0  7 10 0  7.5 10 0  8 10 0  8.5 10 0  9 10 0  9.5 10 0  10 10 0  10.5 10 0  11 10 0  11.5 10 0  12 10 0  12.5 10 0  13 10 0  13.5 10 0  14 10 0  14.5 10 0  15 10 0  15.5 10 0  16 10 0  16.5 10 0  17 10 0  17.5 10 0  18 10 0  18.5 10 0  19 10 0  19.5 10 0  20 10 0  0 10.5 0  0.5 10.5 0  1 10.5 0  1.5 10.5 0  2 10.5 0  2.5 10.5 0  3 10.5 0  3.5 10.5 0  4 10.5 0  4.5 10.5 0  5 10.5 0  5.5 10.5 0  6 10.5 0  6.5 10.5 0  7 10.5 0  7.5 10.5 0  8 10.5 0  8.5 10.5 0  9 10.5 0  9.5 10.5 0  10 10.5 0  10.5 10.5 0  11 10.5 0  11.5 10.5 0  12 10.5 0  12.5 10.5 0  13 10.5 0  13.5 10.5 0  14 10.5 0  14.5 10.5 0  15 10.5 0  15.5 10.5 0  16 10.5 0  16.5 10.5 0  17 10.5 0  17.5 10.5 0  18 10.5 0  18.5 10.5 0  19 10.5 0  19.5 10.5 0  20 10.5 0  0 11 0  0.5 11 0  1 11 0  1.5 11 0  2 11 0  2.5 11 0  3 11 0  3.5 11 0  4 11 0  4.5 11 0  5 11 0  5.5 11 0  6 11 0  6.5 11 0  7 11 0  7.5 11 0  8 11 0  8.5 11 0  9 11 0  9.5 11 0  10 11 0  10.5 11 0  11 11 0  11.5 11 0  12 11 0  12.5 11 0  13 11 0  13.5 11 0  14 11 0  14.5 11 0  15 11 0  15.5 11 0  16 11 0  16.5 11 0  17 11 0  17.5 11 0  18 11 0  18.5 11 0  19 11 0  19.5 11 0  20 11 0  0 11.5 0  0.5 11.5 0  1 11.5 0  1.5 11.5 0  2 11.5 0  2.5 11.5 0  3 11.5 0  3.5 11.5 0  4 11.5 0  4.5 11.5 0  5 11.5 0  5.5 11.5 0  6 11.5 0  6.5 11.5 0  7 11.5 0  7.5 11.5 0  8 11.5 0  8.5 11.5 0  9 11.5 0  9.5 11.5 0  10 11.5 0  10.5 11.5 0  11 11.5 0  11.5 11.5 0  12 11.5 0  12.5 11.5 0  13 11.5 0  13.5 11.5 0  14 11.5 0  14.5 11.5 0  15 11.5 0  15.5 11.5 0  16 11.5 0  16.5 11.5 0  17 11.5 0  17.5 11.5 0  18 11.5 0  18.5 11.5 0  19 11.5 0  19.5 11.5 0  20 11.5 0  0 12 0  0.5 12 0  1 12 0  1.5 12 0  2 12 0  2.5 12 0  3 12 0  3.5 12 0  4 12 0  4.5 12 0  5 12 0  5.5 12 0  6 12 0  6.5 12 0  7 12 0  7.5 12 0  8 12 0  8.5 12 0  9 12 0  9.5 12 0  10 12 0  10.5 12 0  11 12 0  11.5 12 0  12 12 0  12.5 12 0  13 12 0  13.5 12 0  14 12 0  14.5 12 0  
[...]
<PointData  Vectors="f_5623-0"> 
<DataArray  type="Float64"  Name="f_5623-0"  NumberOfComponents="3" format="ascii">0.0000000000000000e+00 0.0000000000000000e+00 0.0000000000000000e+00  1.5622803565030604e-06 0.0000000000000000e+00 0.0000000000000000e+00  7.4878760953991127e-06 0.0000000000000000e+00 0.0000000000000000e+00  2.3613715835270409e-05 0.0000000000000000e+00 0.0000000000000000e+00  5.5002420888589246e-05 0.0000000000000000e+00 0.0000000000000000e+00  1.0661174083787816e-04 0.0000000000000000e+00 0.0000000000000000e+00  1.8331231490706582e-04 0.0000000000000000e+00 0.0000000000000000e+00  2.8985880972075831e-04 0.0000000000000000e+00 0.0000000000000000e+00  4.3085739560617470e-04 0.0000000000000000e+00 0.0000000000000000e+00  6.1072993208791679e-04 0.0000000000000000e+00 0.0000000000000000e+00  8.3367280727284442e-04 0.0000000000000000e+00 0.0000000000000000e+00  1.1036081072751068e-03 0.0000000000000000e+00 0.0000000000000000e+00  1.4241241365507396e-03 0.0000000000000000e+00 0.0000000000000000e+00  1.7984011986882785e-03 0.0000000000000000e+00 0.0000000000000000e+00  2.2291169329193210e-03 0.0000000000000000e+00 0.0000000000000000e+00  2.7183232632947353e-03 0.0000000000000000e+00 0.0000000000000000e+00  3.2672839921697029e-03 0.0000000000000000e+00 0.0000000000000000e+00  3.8762580726319847e-03 0.0000000000000000e+00 0.0000000000000000e+00  4.5442084426771589e-03 0.0000000000000000e+00 0.0000000000000000e+00  5.2684098456933165e-03 0.0000000000000000e+00 0.0000000000000000e+00  6.0439212311573769e-03 0.0000000000000000e+00 0.0000000000000000e+00  6.8628792189467666e-03 0.0000000000000000e+00 0.0000000000000000e+00  7.7135590828826270e-03 0.0000000000000000e+00 0.0000000000000000e+00  8.5791395377376005e-03 0.0000000000000000e+00 0.0000000000000000e+00  9.4360986677108228e-03 0.0000000000000000e+00 0.0000000000000000e+00  1.0252162785858715e-02 0.0000000000000000e+00 0.0000000000000000e+00  1.0983731053566302e-02 0.0000000000000000e+00 0.0000000000000000e+00  1.1572710680476547e-02 0.0000000000000000e+00 0.0000000000000000e+00  1.1942725995355371e-02 0.0000000000000000e+00 0.0000000000000000e+00  1.1994715951335428e-02 0.0000000000000000e+00 0.0000000000000000e+00  1.1602014834953739e-02 0.0000000000000000e+00 0.0000000000000000e+00  1.0605124079465563e-02 0.0000000000000000e+00 0.0000000000000000e+00  8.8065278447688761e-03 0.0000000000000000e+00 0.0000000000000000e+00  5.9660706007136329e-03 0.0000000000000000e+00 0.0000000000000000e+00  1.7975766153574737e-03 0.0000000000000000e+00 0.0000000000000000e+00  -4.0324918018442967e-03 0.0000000000000000e+00 0.0000000000000000e+00  -1.1903520895081312e-02 0.0000000000000000e+00 0.0000000000000000e+00  -2.2235684670664824e-02 0.0000000000000000e+00 0.0000000000000000e+00  -3.5480893950789585e-02 0.0000000000000000e+00 0.0000000000000000e+00  -5.2109343436847921e-02 0.0000000000000000e+00 0.0000000000000000e+00  -7.2589271567024743e-02 0.0000000000000000e+00 0.0000000000000000e+00  0.0000000000000000e+00 1.5622803570066810e-06 0.0000000000000000e+00  -1.7110890017751140e-06 -1.7110890017862385e-06 0.0000000000000000e+00  1.8834436184984760e-06 -9.7138833803967593e-06 0.0000000000000000e+00  1.5559689956895176e-05 -2.2524318200572004e-05 0.0000000000000000e+00  4.4430592283721112e-05 -4.0261235555199938e-05 0.0000000000000000e+00  9.3500343363945440e-05 -6.2915090209273214e-05 0.0000000000000000e+00  1.6765786105343294e-04 -9.0405674290533320e-05 0.0000000000000000e+00  2.7166593531134344e-04 -1.2261187338857976e-04 0.0000000000000000e+00  4.1013616285780831e-04 -1.5938082664848600e-04 0.0000000000000000e+00  5.8749571039190887e-04 -2.0052937552615546e-04 0.0000000000000000e+00  8.0794709319263898e-04 -2.4584293433174833e-04 0.0000000000000000e+00  1.0754197318262326e-03 -2.9507349216251454e-04 0.0000000000000000e+00  1.3935106510008716e-03 -3.4793732029738002e-04 0.0000000000000000e+00  1.7654103398801531e-03 -4.0411261694625952e-04 0.0000000000000000e+00  2.1938081030253563e-03 -4.6323722684933090e-04 0.0000000000000000e+00  2.6807689660804765e-03 -5.2490655429996108e-04 0.0000000000000000e+00  3.2275711635132917e-03 -5.8867179390731925e-04 0.0000000000000000e+00  3.8344892336504592e-03 -6.5403861703039088e-04 0.0000000000000000e+00  4.5005025911699767e-03 -7.2046646928367161e-04 0.0000000000000000e+00  5.2229029879581022e-03 -7.8736865220803550e-04 0.0000000000000000e+00  5.9967664429038045e-03 -8.5411337954982168e-04 0.0000000000000000e+00  6.8142461141622772e-03 -9.2002601316450410e-04 0.0000000000000000e+00  7.6636325672287510e-03 -9.8439269402934783e-04 0.0000000000000000e+00  8.5281177352468651e-03 -1.0464655868730650e-03 0.0000000000000000e+00  9.3841899461086439e-03 -1.1054699493195110e-03 0.0000000000000000e+00  1.0199581879905453e-02 -1.1606132123293674e-03 0.0000000000000000e+00  1.0930694413554320e-02 -1.2110962112264559e-03 0.0000000000000000e+00  1.1519431369705358e-02 -1.2561266241305411e-03 0.0000000000000000e+00  1.1889408734649463e-02 -1.2949345428971784e-03 0.0000000000000000e+00  1.1941553248052928e-02 -1.3267899009743614e-03 0.0000000000000000e+00  1.1549185487063494e-02 -1.3510211924944258e-03 0.0000000000000000e+00  1.0552795596700831e-02 -1.3670345223234283e-03 0.0000000000000000e+00  8.7548642769929436e-03 -1.3743315310712682e-03 0.0000000000000000e+00  5.9152466039432633e-03 -1.3725241852245637e-03 0.0000000000000000e+00  1.7477968663253095e-03 -1.3613438986086407e-03 0.0000000000000000e+00  -4.0809723938943412e-03 -1.3406420324273819e-03 0.0000000000000000e+00  -1.1950389234667519e-02 -1.3103782080823843e-03 0.0000000000000000e+00  -2.2280613636508090e-02 -1.2705899263168645e-03 0.0000000000000000e+00  -3.5523799185705626e-02 -1.2213226617802549e-03 0.0000000000000000e+00  -5.2151711842732491e-02 -1.1624428936859279e-03 0.0000000000000000e+00  -7.2641559552620055e-02 -1.0930941664501260e-03 0.0000000000000000e+00  0.0000000000000000e+00 7.4878760969634970e-06 0.0000000000000000e+00  -9.7138833820995733e-06 1.8834436180187566e-06 0.0000000000000000e+00  -1.3822179327894013e-05 -1.3822179325892923e-05 0.0000000000000000e+00  -7.7578473793944384e-06 -3.9491870786465069e-05 0.0000000000000000e+00  1.3503878456927706e-05 -7.5078094730187943e-05 0.0000000000000000e+00  5.4953766351249997e-05 -1.2047851069271637e-04 0.0000000000000000e+00  1.2148943368723536e-04 -1.7552596931488099e-04 0.0000000000000000e+00  2.1788642077294996e-04 -2.3998827121818564e-04 0.0000000000000000e+00  3.4877030188599616e-04 -3.1357002593842599e-04 0.0000000000000000e+00  5.1858400480330185e-04 -3.9591290667616931e-04 0.0000000000000000e+00  7.3154850521126534e-04 -4.8659386965685858e-04 0.0000000000000000e+00  9.9161510024795333e-04 -5.8512193419241643e-04 0.0000000000000000e+00  1.3024065874378337e-03 -6.9093414997294079e-04 0.0000000000000000e+00  1.6671434067458519e-03 -8.0339122074877991e-04 0.0000000000000000e+00  2.0885491024721660e-03 -9.2177313616003211e-04 0.0000000000000000e+00  2.5687271761749737e-03 -1.0452751084447033e-03 0.0000000000000000e+00  3.1089983501091023e-03 -1.1730040980553720e-03 0.0000000000000000e+00  3.7096832490780512e-03 -1.3039762232343510e-03 0.0000000000000000e+00  4.3698103487331344e-03 -1.4371153710808556e-03 0.0000000000000000e+00  5.0867225779701181e-03 -1.5712533540173182e-03 0.0000000000000000e+00  5.8555481355078674e-03 -1.7051319803597926e-03 0.0000000000000000e+00  6.6684919812217492e-03 -1.8374074259263581e-03 0.0000000000000000e+00  7.5138944562835137e-03 -1.9666573002008066e-03 0.0000000000000000e+00  8.3749933506748076e-03 -2.0913907893270935e-03 0.0000000000000000e+00  9.2283168457819031e-03 -2.2100622222851925e-03 0.0000000000000000e+00  1.0041629290753824e-02 -2.3210883375477027e-03 0.0000000000000000e+00  1.0771352916620727e-02 -2.4228694163104911e-03 0.0000000000000000e+00  1.1359400712066243e-02 -2.5138142841853498e-03 0.0000000000000000e+00  1.1729384289149956e-02 -2.5923689552057815e-03 0.0000000000000000e+00  1.1782211942501994e-02 -2.6570483884064155e-03 0.0000000000000000e+00  1.1391172313160426e-02 -2.7064704395024669e-03 0.0000000000000000e+00  1.0396711995596624e-02 -2.7393906137698574e-03 0.0000000000000000e+00  8.6012596436666443e-03 -2.7547356660215087e-03 0.0000000000000000e+00  5.7646136640785595e-03 -2.7516334613292355e-03 0.0000000000000000e+00  1.6005705109969608e-03 -2.7294357978698298e-03 0.0000000000000000e+00  -4.2244153900577557e-03 -2.6877299849436044e-03 0.0000000000000000e+00  -1.2089735701415390e-02 -2.6263334628246855e-03 0.0000000000000000e+00  -2.2415635610943011e-02 -2.5452630302837146e-03 0.0000000000000000e+00  -3.5654403053531770e-02 -2.4446681769668111e-03 0.0000000000000000e+00  -5.2277954567337616e-02 -2.3247371532986848e-03 0.0000000000000000e+00  -7.2762700436020164e-02 -2.1857411109893524e-03 0.0000000000000000e+00  0.0000000000000000e+00 2.3613715837192201e-05 0.0000000000000000e+00  -2.2524318197853100e-05 1.5559689956776948e-05 0.0000000000000000e+00  -3.9491870785000515e-05 -7.7578473788115797e-06 0.0000000000000000e+00  -4.6179614647168075e-05 -4.6179614646628563e-05 0.0000000000000000e+00  -3.7635613880516036e-05 -9.9559567335194598e-05 0.0000000000000000e+00  -8.8892825556091345e-06 -1.6770065069709959e-04 0.0000000000000000e+00  4.4956220654094769e-05 -2.5032936100989796e-04 0.0000000000000000e+00  1.2868619271820476e-04 -3.4709034505209224e-04 0.0000000000000000e+00  2.4694315787867564e-04 -4.5754259390782674e-04 0.0000000000000000e+00  4.0419308695842273e-04 -5.8115498288475803e-04 0.0000000000000000e+00  6.0468603811066632e-04 -7.1730104942289128e-04 0.0000000000000000e+00  8.5240875936483016e-04 -8.6525307206996162e-04 0.0000000000000000e+00  1.1510262554882279e-03 -1.0241756303039191e-03 0.0000000000000000e+00  1.5038082252638750e-03 -1.1931189202429022e-03 0.0000000000000000e+00  1.9135346492856146e-03 -1.3710121576407848e-03 0.0000000000000000e+00  2.3823725515653197e-03 -1.5566574356316693e-03 0.0000000000000000e+00  2.9117129154821396e-03 -1.7487244361129122e-03 0.0000000000000000e+00  3.5019527243896073e-03 -1.9457464280577558e-03 0.0000000000000000e+00  4.1522019378855577e-03 -2.1461180226917875e-03 0.0000000000000000e+00  4.8598887566808123e-03 -2.3480951922814071e-03 0.0000000000000000e+00  5.6202287080642267e-03 -2.5497980894291215e-03 0.0000000000000000e+00  6.4255139970466144e-03 -2.7492172227666580e-03 0.0000000000000000e+00  7.2641695815493668e-03 -2.9442235441779698e-03 0.0000000000000000e+00  8.1195123240929944e-03 -3.1325829750114527e-03 0.0000000000000000e+00  8.9681407209080757e-03 -3.3119758351258521e-03 0.0000000000000000e+00  9.7778772904643808e-03 -3.4800215309598761e-03 0.0000000000000000e+00  1.0505186907056705e-02 -3.6343086992295984e-03 0.0000000000000000e+00  1.1092006545968773e-02 -3.7724307860817360e-03 0.0000000000000000e+00  1.1461950564236881e-02 -3.8920267641393779e-03 0.0000000000000000e+00  1.1515907044107361e-02 -3.9908263514968284e-03 0.0000000000000000e+00  1.1127120913542874e-02 -4.0666986984482945e-03 0.0000000000000000e+00  1.0135972392147984e-02 -4.1177030479268668e-03 0.0000000000000000e+00  8.3448033485997181e-03 -4.1421393445575409e-03 0.0000000000000000e+00  5.5133084429437179e-03 -4.1385961366542014e-03 0.0000000000000000e+00  1.3551676393941251e-03 -4.1059923318700810e-03 0.0000000000000000e+00  -4.4632892439043148e-03 -4.0436083780844264e-03 0.0000000000000000e+00  -1.2321581073929389e-02 -3.9511013693804753e-03 0.0000000000000000e+00  -2.2640073503303694e-02 -3.8284983735474339e-03 0.0000000000000000e+00  -3.5871147186055836e-02 -3.6761662080343287e-03 0.0000000000000000e+00  -5.2486734439766987e-02 -3.4947693764783858e-03 0.0000000000000000e+00  -7.2963112385313750e-02 -3.2852357005316718e-03 0.0000000000000000e+00  0.0000000000000000e+00 5.5002420888071662e-05 0.0000000000000000e+00  -4.0261235555379923e-05 4.4430592282847624e-05 0.0000000000000000e+00  -7.5078094730982826e-05 1.3503878458978988e-05 0.0000000000000000e+00  -9.9559567336697600e-05 -3.7635613877403068e-05 0.0000000000000000e+00  -1.0877664116747380e-04 -1.0877664116629053e-04 0.0000000000000000e+00  -9.7773230365622845e-05 -1.9963956141241034e-04 0.0000000000000000e+00  -6.1651420223502815e-05 -3.0985205159114612e-04 0.0000000000000000e+00  4.3858105145939796e-06 -4.3893963001120966e-04 0.0000000000000000e+00  1.0500161858925844e-04 -5.8631879676659059e-04 0.0000000000000000e+00  2.4469131857368626e-04 -7.5128982145233902e-04 0.0000000000000000e+00  4.2774330018326969e-04 -9.3302867894578926e-04 0.0000000000000000e+00  6.5819205189104879e-04 -1.1305782630996266e-03 0.0000000000000000e+00  9.3976014396813178e-04 -1.3428391413481601e-03 0.0000000000000000e+00  1.2757849739279414e-03 -1.5685601627154057e-03 0.0000000000000000e+00  1.6691244716808714e-03 -1.8063292838421546e-03 0.0000000000000000e+00  2.1220337172245646e-03 -2.0545650367960076e-03 0.0000000000000000e+00  2.6360013878114399e-03 -2.3115091245011527e-03 0.0000000000000000e+00  3.2115309458987484e-03 -2.5752206908018680e-03 0.0000000000000000e+00  3.8478463239600127e-03 -2.8435728706848137e-03 0.0000000000000000e+00  4.5424954108431058e-03 -3.1142522782841809e-03 0.0000000000000000e+00  5.2908168342915727e-03 -3.3847621304695609e-03 0.0000000000000000e+00  6.0852264648949958e-03 -3.6524297267965257e-03 0.0000000000000000e+00  6.9142701063829269e-03 -3.9144190023454517e-03 0.0000000000000000e+00  7.7613787672472850e-03 -4.1677488320635437e-03 0.0000000000000000e+00  8.6032541043691915e-03 -4.4093176827334091e-03 0.0000000000000000e+00  9.4078062671796824e-03 -4.6359350763849790e-03 0.0000000000000000e+00  1.0131567638200221e-02 -4.8443601403195223e-03 0.0000000000000000e+00  1.0716518210282458e-02 -5.0313472745979115e-03 0.0000000000000000e+00  1.1086287050461305e-02 -5.1936986702141551e-03 0.0000000000000000e+00  1.1141745728414828e-02 -5.3283230665259048e-03 0.0000000000000000e+00  1.0756089754303267e-02 -5.4322997481736851e-03 0.0000000000000000e+00  9.7696168256991098e-03 -5.5029463421803594e-03 0.0000000000000000e+00  7.9845545883864624e-03 -5.5378884561060092e-03 0.0000000000000000e+00  5.1604547598334072e-03 -5.5351285425253409e-03 0.0000000000000000e+00  1.0108301204562501e-03 -5.4931105180738198e-03 0.0000000000000000e+00  -4.7981748779621280e-03 -5.4107756059846961e-03 0.0000000000000000e+00  -1.2646274508738928e-02 -5.2876038271025567e-03 0.0000000000000000e+00  -2.2954028825725618e-02 -5.1236350812955342e-03 0.0000000000000000e+00  -3.6173997582527477e-02 -4.9194639005912871e-03 0.0000000000000000e+00  -5.2778256575578178e-02 -4.6761974948763595e-03 0.0000000000000000e+00  -7.3243126791546126e-02 -4.3953330473529631e-03 0.0000000000000000e+00  0.0000000000000000e+00 1.0661174084026874e-04 0.0000000000000000e+00  -6.2915090210229155e-05 9.3500343365165534e-05 0.0000000000000000e+00  -1.2047851069513421e-04 5.4953766353742313e-05 0.0000000000000000e+00  -1.6770065069857882e-04 -8.8892825532941816e-06 0.0000000000000000e+00  -1.9963956141169189e-04 -9.7773230366766299e-05 0.0000000000000000e+00  -2.1134635960671683e-04 -2.1134635960961759e-04 0.0000000000000000e+00  -1.9791990769004616e-04 -3.4914592878980091e-04 0.0000000000000000e+00  -1.5454898519510097e-04 -5.1058654877333975e-04 0.0000000000000000e+00  -7.6545733295458609e-05 -6.9495070091094208e-04 0.0000000000000000e+00  4.0620648279993368e-05 -9.0137897949441807e-04 0.0000000000000000e+00  2.0128548122732705e-04 -1.1288594300244580e-03 0.0000000000000000e+00  4.0954236328948084e-04 -1.3762160358716522e-03 0.0000000000000000e+00  6.6918578977014868e-04 -1.6420966331038009e-03 0.0000000000000000e+00  9.8363835122157678e-04 -1.9249606302957944e-03 0.0000000000000000e+00  1.3558566306111648e-03 -2.2230669782641113e-03 0.0000000000000000e+00  1.7882076816200889e-03 -2.5344629030602641e-03 0.0000000000000000e+00  2.2823049335127265e-03 -2.8569739892716651e-03 0.0000000000000000e+00  2.8387883623493797e-03 -3.1881962773277453e-03 0.0000000000000000e+00  3.4570286162380133e-03 -3.5254911133757467e-03 0.0000000000000000e+00  4.1347283380540265e-03 -3.8659835579462373e-03 0.0000000000000000e+00  4.8673861323465135e-03 -4.2065652127186133e-03 0.0000000000000000e+00  5.6475795750291127e-03 -4.5439023560804905e-03 0.0000000000000000e+00  6.4640137346488324e-03 -4.8744502781252882e-03 0.0000000000000000e+00  7.3002716455172548e-03 -5.1944746659090104e-03 0.0000000000000000e+00  8.1331944209441474e-03 -5.5000808010439847e-03 0.0000000000000000e+00  8.9308133944436558e-03 -5.7872511886413562e-03 0.0000000000000000e+00  9.6497580115984562e-03 -6.0518920362396091e-03 0.0000000000000000e+00  1.0232075505822894e-02 -6.2898887465412077e-03 0.0000000000000000e+00  1.0601427154750053e-02 -6.4971702847311727e-03 0.0000000000000000e+00  1.0658677370041239e-02 -6.6697819371086160e-03 0.0000000000000000e+00  1.0276972027263184e-02 -6.8039655926899747e-03 0.0000000000000000e+00  9.2965151362695859e-03 -6.8962462346354447e-03 0.0000000000000000e+00  7.5193967541251116e-03 -6.9435227748675405e-03 0.0000000000000000e+00  4.7049890764412593e-03 -6.9431606221976383e-03 0.0000000000000000e+00  5.6658723908501873e-04 -6.8930823521633133e-03 0.0000000000000000e+00  -5.2299143552874718e-03 -6.7918515099864895e-03 0.0000000000000000e+00  -1.3064504624968238e-02 -6.6387430075314875e-03 0.0000000000000000e+00  -2.3358032524895492e-02 -6.4337918594888459e-03 0.0000000000000000e+00  -3.6563345782742430e-02 -6.1778095669922182e-03 0.0000000000000000e+00  -5.3152773242361610e-02 -5.8723518993711562e-03 0.0000000000000000e+00  -7.3602738165675280e-02 -5.5196124359947153e-03 0.0000000000000000e+00  0.0000000000000000e+00 1.8331231490672503e-04 0.0000000000000000e+00  -9.0405674290336199e-05 1.6765786105339811e-04 0.0000000000000000e+00  -1.7552596931372653e-04 1.2148943369103366e-04 0.0000000000000000e+00  -2.5032936100833166e-04 4.4956220653611391e-05 0.0000000000000000e+00  -3.0985205158822203e-04 -6.1651420225220787e-05 0.0000000000000000e+00  -3.4914592878721742e-04 -1.9791990769293201e-04 0.0000000000000000e+00  -3.6330520835186410e-04 -3.6330520835455607e-04 0.0000000000000000e+00  -3.4750307037463048e-04 -5.5712079043035087e-04 0.0000000000000000e+00  -2.9702401777369328e-04 -7.7852593757186830e-04 0.0000000000000000e+00  -2.0729671665978007e-04 -1.0265134752265473e-03 0.0000000000000000e+00  -7.3931407324100414e-05 -1.2998964445972232e-03 0.0000000000000000e+00  1.0723486866040515e-04 -1.5972937637594338e-03 0.0000000000000000e+00  3.4008177891738193e-04 -1.9171151621455440e-03 0.0000000000000000e+00  6.2813355463876798e-04 -2.2575458051296731e-03 0.0000000000000000e+00  9.7446522650573310e-04 -2.6165311197368299e-03 0.0000000000000000e+00  1.3815790425621376e-03 -2.9917624208942728e-03 0.0000000000000000e+00  1.8512398310358477e-03 -3.3806640283595866e-03 0.0000000000000000e+00  2.3842540646823863e-03 -3.7803826574402009e-03 0.0000000000000000e+00  2.9801722326543412e-03 -4.1877799587117575e-03 0.0000000000000000e+00  3.6368876888365383e-03 -4.5994291661870653e-03 0.0000000000000000e+00  4.3500973626141902e-03 -5.0116168830990036e-03 0.0000000000000000e+00  5.1125806928703646e-03 -5.4203510799034904e-03 0.0000000000000000e+00  5.9132432491838848e-03 -5.8213763912498620e-03 0.0000000000000000e+00  6.7358615199916054e-03 -6.2101977674835079e-03 0.0000000000000000e+00  7.5574566510146143e-03 -6.5821134535850121e-03 0.0000000000000000e+00  8.3462196817983454e-03 -6.9322581288594216e-03 0.0000000000000000e+00  9.0589122339258289e-03 -7.2556568428143254e-03 0.0000000000000000e+00  9.6376789846573437e-03 -7.5472901300979020e-03 0.0000000000000000e+00  1.0006237083008070e-02 -7.8021703865655163e-03 0.0000000000000000e+00  1.0065459158575551e-02 -8.0154292438480018e-03 0.0000000000000000e+00  9.6884467312135045e-03 -8.1824152835462093e-03 0.0000000000000000e+00  8.7153034858537398e-03 -8.2988009507000641e-03 0.0000000000000000e+00  6.9479616042353682e-03 -8.3606968881815222e-03 0.0000000000000000e+00  4.1455782924863759e-03 -8.3647710100864803e-03 0.0000000000000