<?xml version="1.0"?>
<VTKFile type="UnstructuredGrid"  version="0.1"  >
<UnstructuredGrid>
<Piece  NumberOfPoints="1681" NumberOfCells="3200">
<Points>
<DataArray  type="Float64"  NumberOfComponents="3"  format="ascii">0 0 0  0.5 0 0  1 0 0  1.5 0 0  2 0 0  2.5 0 0  3 0 0  3.5 0 0  4 0 0  4.5 0 0  5 0 0  5.5 0 0  6 0 0  6.5 0 0  7 0 0  7.5 0 0  8 0 0  8.5 0 0  9 0 0  9.5 0 0  10 0 0  10.5 0 0  11 0 0  11.5 0 0  12 0 0  12.5 0 0  13 0 0  13.5 0 0  14 0 0  14.5 0 0  15 0 0  15.5 0 0  16 0 0  16.5 0 0  17 0 0  17.5 0 0  18 0 0  18.5 0 0  19 0 0  19.5 0 0  20 0 0  0 0.5 0  0.5 0.5 0  1 0.5 0  1.5 0.5 0  2 0.5 0  2.5 0.5 0  3 0.5 0  3.5 0.5 0  4 0.5 0  4.5 0.5 0  5 0.5 0  5.5 0.5 0  6 0.5 0  6.5 0.5 0  7 0.5 0  7.5 0.5 0  8 0.5 0  8.5 0.5 0  9 0.5 0  9.5 0.5 0  10 0.5 0  10.5 0.5 0  11 0.5 0  11.5 0.5 0  12 0.5 0  12.5 0.5 0  13 0.5 0  13.5 0.5 0  14 0.5 0  14.5 0.5 0  15 0.5 0  15.5 0.5 0  16 0.5 0  16.5 0.5 0  17 0.5 0  17.5 0.5 0  18 0.5 0  18.5 0.5 0  19 0.5 0  19.5 0.5 0  20 0.5 0  0 1 0  0.5 1 0  1 1 0  1.5 1 0  2 1 0  2.5 1 0  3 1 0  3.5 1 0  4 1 0  4.5 1 0  5 1 0  5.5 1 0  6 1 0  6.5 1 0  7 1 0  7.5 1 0  8 1 0  8.5 1 0  9 1 0  9.5 1 0  10 1 0  10.5 1 0  11 1 0  11.5 1 0  12 1 0  12.5 1 0  13 1 0  13.5 1 0  14 1 0  14.5 1 0  15 1 0  15.5 1 0  16 1 0  16.5 1 0  17 1 0  17.5 1 0  18 1 0  18.5 1 0  19 1 0  19.5 1 0  20 1 0  0 1.5 0  0.5 1.5 0  1 1.5 0  1.5 1.5 0  2 1.5 0  2.5 1.5 0  3 1.5 0  3.5 1.5 0  4 1.5 0  4.5 1.5 0  5 1.5 0  5.5 1.5 0  6 1.5 0  6.5 1.5 0  7 1.5 0  7.5 1.5 0  8 1.5 0  8.5 1.5 0  9 1.5 0  9.5 1.5 0  10 1.5 0  10.5 1.5 0  11 1.5 0  11.5 1.5 0  12 1.5 0  12.5 1.5 0  13 1.5 0  13.5 1.5 0  14 1.5 0  14.5 1.5 0  15 1.5 0  15.5 1.5 0  16 1.5 0  16.5 1.5 0  17 1.5 0  17.5 1.5 0  18 1.5 0  18.5 1.5 0  19 1.5 0  19.5 1.5 0  20 1.5 0  0 2 0  0.5 2 0  1 2 0  1.5 2 0  2 2 0  2.5 2 0  3 2 0  3.5 2 0  4 2 0  4.5 2 0  5 2 0  5.5 2 0  6 2 0  6.5 2 0  7 2 0  7.5 2 0  8 2 0  8.5 2 0  9 2 0  9.5 2 0  10 2 0  10.5 2 0  11 2 0  11.5 2 0  12 2 0  12.5 2 0  13 2 0  13.5 2 0  14 2 0  14.5 2 0  15 2 0  15.5 2 0  16 2 0  16.5 2 0  17 2 0  17.5 2 0  18 2 0  18.5 2 0  19 2 0  19.5 2 0  20 2 0  0 2.5 0  0.5 2.5 0  1 2.5 0  1.5 2.5 0  2 2.5 0  2.5 2.5 0  3 2.5 0  3.5 2.5 0  4 2.5 0  4.5 2.5 0  5 2.5 0  5.5 2.5 0  6 2.5 0  6.5 2.5 0  7 2.5 0  7.5 2.5 0  8 2.5 0  8.5 2.5 0  9 2.5 0  9.5 2.5 0  10 2.5 0  10.5 2.5 0  11 2.5 0  11.5 2.5 0  12 2.5 0  12.5 2.5 0  13 2.5 0  13.5 2.5 0  14 2.5 0  14.5 2.5 0  15 2.5 0  15.5 2.5 0  16 2.5 0  16.5 2.5 0  17 2.5 0  17.5 2.5 0  18 2.5 0  18.5 2.5 0  19 2.5 0  19.5 2.5 0  20 2.5 0  0 3 0  0.5 3 0  1 3 0  1.5 3 0  2 3 0  2.5 3 0  3 3 0  3.5 3 0  4 3 0  4.5 3 0  5 3 0  5.5 3 0  6 3 0  6.5 3 0  7 3 0  7.5 3 0  8 3 0  8.5 3 0  9 3 0  9.5 3 0  10 3 0  10.5 3 0  11 3 0  11.5 3 0  12 3 0  12.5 3 0  13 3 0  13.5 3 0  14 3 0  14.5 3 0  15 3 0  15.5 3 0  16 3 0  16.5 3 0  17 3 0  17.5 3 0  18 3 0  18.5 3 0  19 3 0  19.5 3 0  20 3 0  0 3.5 0  0.5 3.5 0  1 3.5 0  1.5 3.5 0  2 3.5 0  2.5 3.5 0  3 3.5 0  3.5 3.5 0  4 3.5 0  4.5 3.5 0  5 3.5 0  5.5 3.5 0  6 3.5 0  6.5 3.5 0  7 3.5 0  7.5 3.5 0  8 3.5 0  8.5 3.5 0  9 3.5 0  9.5 3.5 0  10 3.5 0  10.5 3.5 0  11 3.5 0  11.5 3.5 0  12 3.5 0  12.5 3.5 0  13 3.5 0  13.5 3.5 0  14 3.5 0  14.5 3.5 0  15 3.5 0  15.5 3.5 0  16 3.5 0  16.5 3.5 0  17 3.5 0  17.5 3.5 0  18 3.5 0  18.5 3.5 0  19 3.5 0  19.5 3.5 0  20 3.5 0  0 4 0  0.5 4 0  1 4 0  1.5 4 0  2 4 0  2.5 4 0  3 4 0  3.5 4 0  4 4 0  4.5 4 0  5 4 0  5.5 4 0  6 4 0  6.5 4 0  7 4 0  7.5 4 0  8 4 0  8.5 4 0  9 4 0  9.5 4 0  10 4 0  10.5 4 0  11 4 0  11.5 4 0  12 4 0  12.5 4 0  13 4 0  13.5 4 0  14 4 0  14.5 4 0  15 4 0  15.5 4 0  16 4 0  16.5 4 0  17 4 0  17.5 4 0  18 4 0  18.5 4 0  19 4 0  19.5 4 0  20 4 0  0 4.5 0  0.5 4.5 0  1 4.5 0  1.5 4.5 0  2 4.5 0  2.5 4.5 0  3 4.5 0  3.5 4.5 0  4 4.5 0  4.5 4.5 0  5 4.5 0  5.5 4.5 0  6 4.5 0  6.5 4.5 0  7 4.5 0  7.5 4.5 0  8 4.5 0  8.5 4.5 0  9 4.5 0  9.5 4.5 0  10 4.5 0  10.5 4.5 0  11 4.5 0  11.5 4.5 0  12 4.5 0  12.5 4.5 0  13 4.5 0  13.5 4.5 0  14 4.5 0  14.5 4.5 0  15 4.5 0  15.5 4.5 0  16 4.5 0  16.5 4.5 0  17 4.5 0  17.5 4.5 0  18 4.5 0  18.5 4.5 0  19 4.5 0  19.5 4.5 0  20 4.5 0  0 5 0  0.5 5 0  1 5 0  1.5 5 0  2 5 0  2.5 5 0  3 5 0  3.5 5 0  4 5 0  4.5 5 0  5 5 0  5.5 5 0  6 5 0  6.5 5 0  7 5 0  7.5 5 0  8 5 0  8.5 5 0  9 5 0  9.5 5 0  10 5 0  10.5 5 0  11 5 0  11.5 5 0  12 5 0  12.5 5 0  13 5 0  13.5 5 0  14 5 0  14.5 5 0  15 5 0  15.5 5 0  16 5 0  16.5 5 0  17 5 0  17.5 5 0  18 5 0  18.5 5 0  19 5 0  19.5 5 0  20 5 0  0 5.5 0  0.5 5.5 0  1 5.5 0  1.5 5.5 0  2 5.5 0  2.5 5.5 0  3 5.5 0  3.5 5.5 0  4 5.5 0  4.5 5.5 0  5 5.5 0  5.5 5.5 0  6 5.5 0  6.5 5.5 0  7 5.5 0  7.5 5.5 0  8 5.5 0  8.5 5.5 0  9 5.5 0  9.5 5.5 0  10 5.5 0  10.5 5.5 0  11 5.5 0  11.5 5.5 0  12 5.5 0  12.5 5.5 0  13 5.5 0  13.5 5.5 0  14 5.5 0  14.5 5.5 0  15 5.5 0  15.5 5.5 0  16 5.5 0  16.5 5.5 0  17 5.5 0  17.5 5.5 0  18 5.5 0  18.5 5.5 0  19 5.5 0  19.5 5.5 0  20 5.5 0  0 6 0  0.5 6 0  1 6 0  1.5 6 0  2 6 0  2.5 6 0  3 6 0  3.5 6 0  4 6 0  4.5 6 0  5 6 0  5.5 6 0  6 6 0  6.5 6 0  7 6 0  7.5 6 0  8 6 0  8.5 6 0  9 6 0  9.5 6 0  10 6 0  10.5 6 0  11 6 0  11.5 6 0  12 6 0  12.5 6 0  13 6 0  13.5 6 0  14 6 0  14.5 6 0  15 6 0  15.5 6 0  16 6 0  16.5 6 0  17 6 0  17.5 6 0  18 6 0  18.5 6 0  19 6 0  19.5 6 0  20 6 0  0 6.5 0  0.5 6.5 0  1 6.5 0  1.5 6.5 0  2 6.5 0  2.5 6.5 0  3 6.5 0  3.5 6.5 0  4 6.5 0  4.5 6.5 0  5 6.5 0  5.5 6.5 0  6 6.5 0  6.5 6.5 0  7 6.5 0  7.5 6.5 0  8 6.5 0  8.5 6.5 0  9 6.5 0  9.5 6.5 0  10 6.5 0  10.5 6.5 0  11 6.5 0  11.5 6.5 0  12 6.5 0  12.5 6.5 0  13 6.5 0  13.5 6.5 0  14 6.5 0  14.5 6.5 0  15 6.5 0  15.5 6.5 0  16 6.5 0  16.5 6.5 0  17 6.5 0  17.5 6.5 0  18 6.5 0  18.5 6.5 0  19 6.5 0  19.5 6.5 0  20 6.5 0  0 7 0  0.5 7 0  1 7 0  1.5 7 0  2 7 0  2.5 7 0  3 7 0  3.5 7 0  4 7 0  4.5 7 0  5 7 0  5.5 7 0  6 7 0  6.5 7 0  7 7 0  7.5 7 0  8 7 0  8.5 7 0  9 7 0  9.5 7 0  10 7 0  10.5 7 0  11 7 0  11.5 7 0  12 7 0  12.5 7 0  13 7 0  13.5 7 0  14 7 0  14.5 7 0  15 7 0  15.5 7 0  16 7 0  16.5 7 0  17 7 0  17.5 7 0  18 7 0  18.5 7 0  19 7 0  19.5 7 0  20 7 0  0 7.5 0  0.5 7.5 0  1 7.5 0  1.5 7.5 0  2 7.5 0  2.5 7.5 0  3 7.5 0  3.5 7.5 0  4 7.5 0  4.5 7.5 0  5 7.5 0  5.5 7.5 0  6 7.5 0  6.5 7.5 0  7 7.5 0  7.5 7.5 0  8 7.5 0  8.5 7.5 0  9 7.5 0  9.5 7.5 0  10 7.5 0  10.5 7.5 0  11 7.5 0  11.5 7.5 0  12 7.5 0  12.5 7.5 0  13 7.5 0  13.5 7.5 0  14 7.5 0  14.5 7.5 0  15 7.5 0  15.5 7.5 0  16 7.5 0  16.5 7.5 0  17 7.5 0  17.5 7.5 0  18 7.5 0  18.5 7.5 0  19 7.5 0  19.5 7.5 0  20 7.5 0  0 8 0  0.5 8 0  1 8 0  1.5 8 0  2 8 0  2.5 8 0  3 8 0  3.5 8 0  4 8 0  4.5 8 0  5 8 0  5.5 8 0  6 8 0  6.5 8 0  7 8 0  7.5 8 0  8 8 0  8.5 8 0  9 8 0  9.5 8 0  10 8 0  10.5 8 0  11 8 0  11.5 8 0  12 8 0  12.5 8 0  13 8 0  13.5 8 0  14 8 0  14.5 8 0  15 8 0  15.5 8 0  16 8 0  16.5 8 0  17 8 0  17.5 8 0  18 8 0  18.5 8 0  19 8 0  19.5 8 0  20 8 0  0 8.5 0  0.5 8.5 0  1 8.5 0  1.5 8.5 0  2 8.5 0  2.5 8.5 0  3 8.5 0  3.5 8.5 0  4 8.5 0  4.5 8.5 0  5 8.5 0  5.5 8.5 0  6 8.5 0  6.5 8.5 0  7 8.5 0  7.5 8.5 0  8 8.5 0  8.5 8.5 0  9 8.5 0  9.5 8.5 0  10 8.5 0  10.5 8.5 0  11 8.5 0  11.5 8.5 0  12 8.5 0  12.5 8.5 0  13 8.5 0  13.5 8.5 0  14 8.5 0  14.5 8.5 0  15 8.5 0  15.5 8.5 0  16 8.5 0  16.5 8.5 0  17 8.5 0  17.5 8.5 0  18 8.5 0  18.5 8.5 0  19 8.5 0  19.5 8.5 0  20 8.5 0  0 9 0  0.5 9 0  1 9 0  1.5 9 0  2 9 0  2.5 9 0  3 9 0  3.5 9 0  4 9 0  4.5 9 0  5 9 0  5.5 9 0  6 9 0  6.5 9 0  7 9 0  7.5 9 0  8 9 0  8.5 9 0  9 9 0  9.5 9 0  10 9 0  10.5 9 0  11 9 0  11.5 9 0  12 9 0  12.5 9 0  13 9 0  13.5 9 0  14 9 0  14.5 9 0  15 9 0  15.5 9 0  16 9 0  16.5 9 0  17 9 0  17.5 9 0  18 9 0  18.5 9 0  19 9 0  19.5 9 0  20 9 0  0 9.5 0  0.5 9.5 0  1 9.5 0  1.5 9.5 0  2 9.5 0  2.5 9.5 0  3 9.5 0  3.5 9.5 0  4 9.5 0  4.5 9.5 0  5 9.5 0  5.5 9.5 0  6 9.5 0  6.5 9.5 0  7 9.5 0  7.5 9.5 0  8 9.5 0  8.5 9.5 0  9 9.5 0  9.5 9.5 0  10 9.5 0  10.5 9.5 0  11 9.5 0  11.5 9.5 0  12 9.5 0  12.5 9.5 0  13 9.5 0  13.5 9.5 0  14 9.5 0  14.5 9.5 0  15 9.5 0  15.5 9.5 0  16 9.5 0  16.5 9.5 0  17 9.5 0  17.5 9.5 0  18 9.5 0  18.5 9.5 0  19 9.5 0  19.5 9.5 0  20 9.5 0  0 10 0  0.5 10 0  1 10 0  1.5 10 0  2 10 0  2.5 10 0  3 10 0  3.5 10 0  4 10 0  4.5 10 0  5 10 0  5.5 10 0  6 10 0  6.5 10 0  7 10 0  7.5 10 0  8 10 0  8.5 10 0  9 10 0  9.5 10 0  10 10 0  10.5 10 0  11 10 0  11.5 10 0  12 10 0  12.5 10 0  13 10 0  13.5 10 0  14 10 0  14.5 10 0  15 10 0  15.5 10 0  16 10 0  16.5 10 0  17 10 0  17.5 10 0  18 10 0  18.5 10 0  19 10 0  19.5 10 0  20 10 0  0 10.5 0  0.5 10.5 0  1 10.5 0  1.5 10.5 0  2 10.5 0  2.5 10.5 0  3 10.5 0  3.5 10.5 0  4 10.5 0  4.5 10.5 0  5 10.5 0  5.5 10.5 0  6 10.5 0  6.5 10.5 0  7 10.5 0  7.5 10.5 0  8 10.5 0  8.5 10.5 0  9 10.5 0  9.5 10.5 0  10 10.5 0  10.5 10.5 0  11 10.5 0  11.5 10.5 0  12 10.5 0  12.5 10.5 0  13 10.5 0  13.5 10.5 0  14 10.5 0  14.5 10.5 0  15 10.5 0  15.5 10.5 0  16 10.5 0  16.5 10.5 0  17 10.5 0  17.5 10.5 0  18 10.5 0  18.5 10.5 0  19 10.5 0  19.5 10.5 0  20 10.5 0  0 11 0  0.5 11 0  1 11 0  1.5 11 0  2 11 0  2.5 11 0  3 11 0  3.5 11 0  4 11 0  4.5 11 0  5 11 0  5.5 11 0  6 11 0  6.5 11 0  7 11 0  7.5 11 0  8 11 0  8.5 11 0  9 11 0  9.5 11 0  10 11 0  10.5 11 0  11 11 0  11.5 11 0  12 11 0  12.5 11 0  13 11 0  13.5 11 0  14 11 0  14.5 11 0  15 11 0  15.5 11 0  16 11 0  16.5 11 0  17 11 0  17.5 11 0  18 11 0  18.5 11 0  19 11 0  19.5 11 0  20 11 0  0 11.5 0  0.5 11.5 0  1 11.5 0  1.5 11.5 0  2 11.5 0  2.5 11.5 0  3 11.5 0  3.5 11.5 0  4 11.5 0  4.5 11.5 0  5 11.5 0  5.5 11.5 0  6 11.5 0  6.5 11.5 0  7 11.5 0  7.5 11.5 0  8 11.5 0  8.5 11.5 0  9 11.5 0  9.5 11.5 0  10 11.5 0  10.5 11.5 0  11 11.5 0  11.5 11.5 0  12 11.5 0  12.5 11.5 0  13 11.5 0  13.5 11.5 0  14 11.5 0  14.5 11.5 0  15 11.5 0  15.5 11.5 0  16 11.5 0  16.5 11.5 0  17 11.5 0  17.5 11.5 0  18 11.5 0  18.5 11.5 0  19 11.5 0  19.5 11.5 0  20 11.5 0  0 12 0  0.5 12 0  1 12 0  1.5 12 0  2 12 0  2.5 12 0  3 12 0  3.5 12 0  4 12 0  4.5 12 0  5 12 0  5.5 12 0  6 12 0  6.5 12 0  7 12 0  7.5 12 0  8 12 0  8.5 12 0  9 12 0  9.5 12 0  10 12 0  10.5 12 0  11 12 0  11.5 12 0  12 12 0  12.5 12 0  13 12 0  13.5 12 0  14 12 0  14.5 12 0  
[...]
<PointData  Vectors="f_5623-0"> 
<DataArray  type="Float64"  Name="f_5623-0"  NumberOfComponents="3" format="ascii">0.0000000000000000e+00 0.0000000000000000e+00 0.0000000000000000e+00  3.0712074698378646e-08 0.0000000000000000e+00 0.0000000000000000e+00  1.0914557596875776e-05 0.0000000000000000e+00 0.0000000000000000e+00  4.7949251587160052e-05 0.0000000000000000e+00 0.0000000000000000e+00  1.2403648717766158e-04 0.0000000000000000e+00 0.0000000000000000e+00  2.5159016105761190e-04 0.0000000000000000e+00 0.0000000000000000e+00  4.4252749667663332e-04 0.0000000000000000e+00 0.0000000000000000e+00  7.0809794359420438e-04 0.0000000000000000e+00 0.0000000000000000e+00  1.0586758886936512e-03 0.0000000000000000e+00 0.0000000000000000e+00  1.5035143832328709e-03 0.0000000000000000e+00 0.0000000000000000e+00  2.0504484801269762e-03 0.0000000000000000e+00 0.0000000000000000e+00  2.7055357698426759e-03 0.0000000000000000e+00 0.0000000000000000e+00  3.4726204287910279e-03 0.0000000000000000e+00 0.0000000000000000e+00  4.3528055336048786e-03 0.0000000000000000e+00 0.0000000000000000e+00  5.3438168494412052e-03 0.0000000000000000e+00 0.0000000000000000e+00  6.4392400212118844e-03 0.0000000000000000e+00 0.0000000000000000e+00  7.6276123634902897e-03 0.0000000000000000e+00 0.0000000000000000e+00  8.8913506179907741e-03 0.0000000000000000e+00 0.0000000000000000e+00  1.0205497591030068e-02 0.0000000000000000e+00 0.0000000000000000e+00  1.1536274078870465e-02 0.0000000000000000e+00 0.0000000000000000e+00  1.2839428633385615e-02 0.0000000000000000e+00 0.0000000000000000e+00  1.4058387302259280e-02 0.0000000000000000e+00 0.0000000000000000e+00  1.5122219315134267e-02 0.0000000000000000e+00 0.0000000000000000e+00  1.5943453508584580e-02 0.0000000000000000e+00 0.0000000000000000e+00  1.6415804538599952e-02 0.0000000000000000e+00 0.0000000000000000e+00  1.6411897505363399e-02 0.0000000000000000e+00 0.0000000000000000e+00  1.5781113473096013e-02 0.0000000000000000e+00 0.0000000000000000e+00  1.4347714127397632e-02 0.0000000000000000e+00 0.0000000000000000e+00  1.1909437393087894e-02 0.0000000000000000e+00 0.0000000000000000e+00  8.2367812964884539e-03 0.0000000000000000e+00 0.0000000000000000e+00  3.0732031793466422e-03 0.0000000000000000e+00 0.0000000000000000e+00  -3.8635525980157907e-03 0.0000000000000000e+00 0.0000000000000000e+00  -1.2878830137750362e-02 0.0000000000000000e+00 0.0000000000000000e+00  -2.4297051499488465e-02 0.0000000000000000e+00 0.0000000000000000e+00  -3.8456341802870490e-02 0.0000000000000000e+00 0.0000000000000000e+00  -5.5701942556360413e-02 0.0000000000000000e+00 0.0000000000000000e+00  -7.6378694752745113e-02 0.0000000000000000e+00 0.0000000000000000e+00  -1.0082295732016180e-01 0.0000000000000000e+00 0.0000000000000000e+00  -1.2935423948432656e-01 0.0000000000000000e+00 0.0000000000000000e+00  -1.6226599541459716e-01 0.0000000000000000e+00 0.0000000000000000e+00  -1.9981212620772343e-01 0.0000000000000000e+00 0.0000000000000000e+00  0.0000000000000000e+00 3.0712075107867361e-08 0.0000000000000000e+00  -8.9283700739779115e-06 -8.9283700726805857e-06 0.0000000000000000e+00  -4.2324869620508191e-06 -3.0526275658945613e-05 0.0000000000000000e+00  2.6277749094025748e-05 -6.4950950822965657e-05 0.0000000000000000e+00  9.5634330185672870e-05 -1.1255657198032203e-04 0.0000000000000000e+00  2.1638522418125574e-04 -1.7334260560799433e-04 0.0000000000000000e+00  4.0050202543039087e-04 -2.4711067204925629e-04 0.0000000000000000e+00  6.5925828699793933e-04 -3.3355002529496908e-04 0.0000000000000000e+00  1.0030434662813535e-03 -4.3226546501995427e-04 0.0000000000000000e+00  1.4411241385942992e-03 -5.4278318199539762e-04 0.0000000000000000e+00  1.9813501055970712e-03 -6.6454909304123776e-04 0.0000000000000000e+00  2.6297960871782093e-03 -7.9692458229382054e-04 0.0000000000000000e+00  3.3903263109729765e-03 -9.3918129192677548e-04 0.0000000000000000e+00  4.2640670853311535e-03 -1.0904955909611649e-03 0.0000000000000000e+00  5.2487706793693609e-03 -1.2499430520213656e-03 0.0000000000000000e+00  6.3380524785745709e-03 -1.4164931888192018e-03 0.0000000000000000e+00  7.5204826229383513e-03 -1.5890047032530753e-03 0.0000000000000000e+00  8.7785134975041732e-03 -1.7662215130117853e-03 0.0000000000000000e+00  1.0087225987081585e-02 -1.9467698644907289e-03 0.0000000000000000e+00  1.1412880905684342e-02 -2.1291568758412278e-03 0.0000000000000000e+00  1.2711268162976880e-02 -2.3117708979260194e-03 0.0000000000000000e+00  1.3925855821962325e-02 -2.4928841245807176e-03 0.0000000000000000e+00  1.4985755051127548e-02 -2.6706579237662947e-03 0.0000000000000000e+00  1.5803535807906680e-02 -2.8431513930621492e-03 0.0000000000000000e+00  1.6272952354797542e-02 -3.0083336584151442e-03 0.0000000000000000e+00  1.6266667287567808e-02 -3.1641004245015225e-03 0.0000000000000000e+00  1.5634096602613605e-02 -3.3082952358590764e-03 0.0000000000000000e+00  1.4199534063604956e-02 -3.4387358053557747e-03 0.0000000000000000e+00  1.1760746661705542e-02 -3.5532455969608705e-03 0.0000000000000000e+00  8.0882583590176655e-03 -3.6496905999690004e-03 0.0000000000000000e+00  2.9255490441506648e-03 -3.7260208974638155e-03 0.0000000000000000e+00  -4.0096184458523259e-03 -3.7803162198846085e-03 0.0000000000000000e+00  -1.3022575348016837e-02 -3.8108342176139572e-03 0.0000000000000000e+00  -2.4437739619502220e-02 -3.8160597529027160e-03 0.0000000000000000e+00  -3.8593247387026006e-02 -3.7947532130438474e-03 0.0000000000000000e+00  -5.5834380024095326e-02 -3.7459957346726398e-03 0.0000000000000000e+00  -7.6506081829039230e-02 -3.6692286112847828e-03 0.0000000000000000e+00  -1.0094498510345104e-01 -3.5642782979360545e-03 0.0000000000000000e+00  -1.2947145955329536e-01 -3.4313251822471968e-03 0.0000000000000000e+00  -1.6238242306302808e-01 -3.2706271886424935e-03 0.0000000000000000e+00  -1.9994714568620864e-01 -3.0813482742923720e-03 0.0000000000000000e+00  0.0000000000000000e+00 1.0914557598940952e-05 0.0000000000000000e+00  -3.0526275659139123e-05 -4.2324869619975483e-06 0.0000000000000000e+00  -4.6503111139996734e-05 -4.6503111141513058e-05 0.0000000000000000e+00  -3.6392079825164125e-05 -1.1546764142029977e-04 0.0000000000000000e+00  1.2574117474047847e-05 -2.1100374440958400e-04 0.0000000000000000e+00  1.1289897691282542e-04 -3.3285557781132684e-04 0.0000000000000000e+00  2.7657538029324935e-04 -4.8059800813115704e-04 0.0000000000000000e+00  5.1490982201041592e-04 -6.5363411791501830e-04 0.0000000000000000e+00  8.3832698007798310e-04 -8.5120125350316691e-04 0.0000000000000000e+00  1.2561318641851576e-03 -1.0723737132230136e-03 0.0000000000000000e+00  1.7762182030453726e-03 -1.3160601289981984e-03 0.0000000000000000e+00  2.4047120143597827e-03 -1.5809968774525393e-03 0.0000000000000000e+00  3.1455375090252945e-03 -1.8657390949017518e-03 0.0000000000000000e+00  3.9998905165633068e-03 -2.1686504660389668e-03 0.0000000000000000e+00  4.9656028473900162e-03 -2.4878926164430258e-03 0.0000000000000000e+00  6.0363796070958837e-03 -2.8214147573995740e-03 0.0000000000000000e+00  7.2008906813117125e-03 -3.1669441657381499e-03 0.0000000000000000e+00  8.4416977510444521e-03 -3.5219780830486025e-03 0.0000000000000000e+00  9.7339997284031279e-03 -3.8837776597569957e-03 0.0000000000000000e+00  1.1044182996659277e-02 -4.2493646326835187e-03 0.0000000000000000e+00  1.2328168989848363e-02 -4.6155215012173316e-03 0.0000000000000000e+00  1.3529561242891916e-02 -4.9787960502794479e-03 0.0000000000000000e+00  1.4577607898972340e-02 -5.3355111507965604e-03 0.0000000000000000e+00  1.5385014504612089e-02 -5.6817808419683483e-03 0.0000000000000000e+00  1.5845666199451228e-02 -6.0135337508472816e-03 0.0000000000000000e+00  1.5832348000414130e-02 -6.3265449159673201e-03 0.0000000000000000e+00  1.5194585742640839e-02 -6.6164770288768418e-03 0.0000000000000000e+00  1.3756765988632574e-02 -6.8789319592561134e-03 0.0000000000000000e+00  1.1316726765426338e-02 -7.1095131518164618e-03 0.0000000000000000e+00  7.6450363945164230e-03 -7.3038990402338379e-03 0.0000000000000000e+00  2.4851874136548151e-03 -7.4579269892765991e-03 0.0000000000000000e+00  -4.4450815261270786e-03 -7.5676864438219147e-03 0.0000000000000000e+00  -1.3451167997496811e-02 -7.6296189587878281e-03 0.0000000000000000e+00  -2.4857604366876593e-02 -7.6406216565087816e-03 0.0000000000000000e+00  -3.9002696933227936e-02 -7.5981494158447807e-03 0.0000000000000000e+00  -5.6231965168821660e-02 -7.5003094915420286e-03 0.0000000000000000e+00  -7.6890681611881853e-02 -7.3459393937419697e-03 0.0000000000000000e+00  -1.0131593816690204e-01 -7.1346534314128207e-03 0.0000000000000000e+00  -1.2982875385701739e-01 -6.8668405267996481e-03 0.0000000000000000e+00  -1.6272678042262584e-01 -6.5436521803644582e-03 0.0000000000000000e+00  -2.0027797209725304e-01 -6.1674907974209499e-03 0.0000000000000000e+00  0.0000000000000000e+00 4.7949251591312316e-05 0.0000000000000000e+00  -6.4950950823463454e-05 2.6277749093431757e-05 0.0000000000000000e+00  -1.1546764142156525e-04 -3.6392079826280907e-05 0.0000000000000000e+00  -1.3957480307172222e-04 -1.3957480307076852e-04 0.0000000000000000e+00  -1.2472300557749027e-04 -2.8287130870450176e-04 0.0000000000000000e+00  -5.8472960180818872e-05 -4.6576666067531047e-04 0.0000000000000000e+00  7.1160046837103643e-05 -6.8755092177587339e-04 0.0000000000000000e+00  2.7550339281314754e-04 -9.4730247633321670e-04 0.0000000000000000e+00  5.6502116125448001e-04 -1.2438784344753900e-03 0.0000000000000000e+00  9.4907243554188296e-04 -1.5759044588393883e-03 0.0000000000000000e+00  1.4356190240907929e-03 -1.9417631115001661e-03 0.0000000000000000e+00  2.0308696443393265e-03 -2.3395805156840241e-03 0.0000000000000000e+00  2.7388467899281781e-03 -2.7672115319052862e-03 0.0000000000000000e+00  3.5608610464175575e-03 -3.2222239401296523e-03 0.0000000000000000e+00  4.4948760768965734e-03 -3.7018822722288611e-03 0.0000000000000000e+00  5.5347461918077798e-03 -4.2031320147936559e-03 0.0000000000000000e+00  6.6693076538536624e-03 -4.7225849584516168e-03 0.0000000000000000e+00  7.8813050181679601e-03 -5.2565065334192413e-03 0.0000000000000000e+00  9.1461353369605702e-03 -5.8008060536716343e-03 0.0000000000000000e+00  1.0430396548853662e-02 -6.3510308930650418e-03 0.0000000000000000e+00  1.1690232522648794e-02 -6.9023657343253988e-03 0.0000000000000000e+00  1.2869476821828534e-02 -7.4496381608374759e-03 0.0000000000000000e+00  1.3897611116728872e-02 -7.9873319944379472e-03 0.0000000000000000e+00  1.4687573025058267e-02 -8.5096099095513331e-03 0.0000000000000000e+00  1.5133472455002316e-02 -9.0103469567865448e-03 0.0000000000000000e+00  1.5108305143926557e-02 -9.4831766832170102e-03 0.0000000000000000e+00  1.4461785986847896e-02 -9.9215515045158135e-03 0.0000000000000000e+00  1.3018460550611993e-02 -1.0318818818470991e-02 0.0000000000000000e+00  1.0576286787671148e-02 -1.0668313991342280e-02 0.0000000000000000e+00  6.9059044516875156e-03 -1.0963470734727308e-02 0.0000000000000000e+00  1.7508195410132752e-03 -1.1197948465206118e-02 0.0000000000000000e+00  -5.1712829422046616e-03 -1.1365774969413173e-02 0.0000000000000000e+00  -1.4165929677915834e-02 -1.1461501095245880e-02 0.0000000000000000e+00  -2.5557864702957869e-02 -1.1480362318123135e-02 0.0000000000000000e+00  -3.9685693904710828e-02 -1.1418440004576133e-02 0.0000000000000000e+00  -5.6895326932770177e-02 -1.1272813236326996e-02 0.0000000000000000e+00  -7.7532514447552561e-02 -1.1041690973943561e-02 0.0000000000000000e+00  -1.0193489913696857e-01 -1.0724517541257399e-02 0.0000000000000000e+00  -1.3042407840693410e-01 -1.0322063743564147e-02 0.0000000000000000e+00  -1.6329820664218672e-01 -9.8365811019516820e-03 0.0000000000000000e+00  -2.0082565183284445e-01 -9.2722351727582853e-03 0.0000000000000000e+00  0.0000000000000000e+00 1.2403648718012415e-04 0.0000000000000000e+00  -1.1255657198003266e-04 9.5634330184871374e-05 0.0000000000000000e+00  -2.1100374441204798e-04 1.2574117473791200e-05 0.0000000000000000e+00  -2.8287130870829821e-04 -1.2472300557505404e-04 0.0000000000000000e+00  -3.1567951917635823e-04 -3.1567951917354218e-04 0.0000000000000000e+00  -2.9703584734135818e-04 -5.5955648841646494e-04 0.0000000000000000e+00  -2.1495907071241409e-04 -8.5537941040643678e-04 0.0000000000000000e+00  -5.8097172018791257e-05 -1.2019108352563528e-03 0.0000000000000000e+00  1.8406076031962355e-04 -1.5976329416107370e-03 0.0000000000000000e+00  5.2094153715992822e-04 -2.0407304981329200e-03 0.0000000000000000e+00  9.6059584640081691e-04 -2.5290721708432044e-03 0.0000000000000000e+00  1.5093432798945206e-03 -3.0601901245413269e-03 0.0000000000000000e+00  2.1713402304874342e-03 -3.6312583049019432e-03 0.0000000000000000e+00  2.9480551692202795e-03 -4.2390699265135376e-03 0.0000000000000000e+00  3.8376343367094771e-03 -4.8800148085827860e-03 0.0000000000000000e+00  4.8341396164389714e-03 -5.5500573248839172e-03 0.0000000000000000e+00  5.9266396178001435e-03 -6.2447158644454845e-03 0.0000000000000000e+00  7.0981351571277095e-03 -6.9590448341733261e-03 0.0000000000000000e+00  8.3243018577081260e-03 -7.6876203796915257e-03 0.0000000000000000e+00  9.5720360798200160e-03 -8.4245311589890466e-03 0.0000000000000000e+00  1.0797796539770836e-02 -9.1633756776435225e-03 0.0000000000000000e+00  1.1945743573108710e-02 -9.8972678825609874e-03 0.0000000000000000e+00  1.2945691861624507e-02 -1.0618852908229174e-02 0.0000000000000000e+00  1.3710911308471792e-02 -1.1320335063052767e-02 0.0000000000000000e+00  1.4135835061175585e-02 -1.1993520313096140e-02 0.0000000000000000e+00  1.4093763339381074e-02 -1.2629875633412361e-02 0.0000000000000000e+00  1.3434685685528578e-02 -1.3220607603849232e-02 0.0000000000000000e+00  1.1983380148019080e-02 -1.3756762460652439e-02 0.0000000000000000e+00  9.5379816477235736e-03 -1.4229349392889744e-02 0.0000000000000000e+00  5.8692374251940608e-03 -1.4629488100383779e-02 0.0000000000000000e+00  7.2067747602806806e-04 -1.4948580418810852e-02 0.0000000000000000e+00  -6.1900859578516831e-03 -1.5178504111387518e-02 0.0000000000000000e+00  -1.5168760625943667e-02 -1.5311824736991966e-02 0.0000000000000000e+00  -2.6540388609784846e-02 -1.5342018958097864e-02 0.0000000000000000e+00  -4.0643995188264274e-02 -1.5263700059004169e-02 0.0000000000000000e+00  -5.7826029090232399e-02 -1.5072834448016494e-02 0.0000000000000000e+00  -7.8432890152509427e-02 -1.4766937819899592e-02 0.0000000000000000e+00  -1.0280296245445079e-01 -1.4345243814984424e-02 0.0000000000000000e+00  -1.3125865822925481e-01 -1.3808848567344337e-02 0.0000000000000000e+00  -1.6409903014454333e-01 -1.3160842687048835e-02 0.0000000000000000e+00  -2.0159356094603567e-01 -1.2406383464722334e-02 0.0000000000000000e+00  0.0000000000000000e+00 2.5159016105897962e-04 0.0000000000000000e+00  -1.7334260560938056e-04 2.1638522418258234e-04 0.0000000000000000e+00  -3.3285557781230995e-04 1.1289897691430450e-04 0.0000000000000000e+00  -4.6576666067776179e-04 -5.8472960178287274e-05 0.0000000000000000e+00  -5.5955648841798011e-04 -2.9703584734128071e-04 0.0000000000000000e+00  -6.0185597987511550e-04 -6.0185597987357409e-04 0.0000000000000000e+00  -5.8068081261847964e-04 -9.7171610840648807e-04 0.0000000000000000e+00  -4.8464815733094061e-04 -1.4050831482910842e-03 0.0000000000000000e+00  -3.0319077634866147e-04 -1.9000843355060234e-03 0.0000000000000000e+00  -2.6799999114721700e-05 -2.4544840738381589e-03 0.0000000000000000e+00  3.5268353344609184e-04 -3.0656590735577125e-03 0.0000000000000000e+00  8.4171657119235096e-04 -3.7305714687008366e-03 0.0000000000000000e+00  1.4446228014882113e-03 -4.4457402892448036e-03 0.0000000000000000e+00  2.1630695342229477e-03 -5.2072119253256249e-03 0.0000000000000000e+00  2.9954344101913084e-03 -6.0105303685231391e-03 0.0000000000000000e+00  3.9360437680543018e-03 -6.8507081500253832e-03 0.0000000000000000e+00  4.9742635652946813e-03 -7.7221990448375077e-03 0.0000000000000000e+00  6.0934239043080440e-03 -8.6188737804000892e-03 0.0000000000000000e+00  7.2695597406952674e-03 -9.5340001785698628e-03 0.0000000000000000e+00  8.4699538336609065e-03 -1.0460229372486746e-02 0.0000000000000000e+00  9.6514741394844450e-03 -1.1389589975125956e-02 0.0000000000000000e+00  1.0758707441023948e-02 -1.2313492332535004e-02 0.0000000000000000e+00  1.1721904872076382e-02 -1.3222745266466258e-02 0.0000000000000000e+00  1.2454773870557609e-02 -1.4107587984643661e-02 0.0000000000000000e+00  1.2852175436447368e-02 -1.4957740088098304e-02 0.0000000000000000e+00  1.2787815276564031e-02 -1.5762472792859899e-02 0.0000000000000000e+00  1.2112051461794178e-02 -1.6510704546360170e-02 0.0000000000000000e+00  1.0649977238852132e-02 -1.7191124071234642e-02 0.0000000000000000e+00  8.1999715563304126e-03 -1.7792343400877073e-02 0.0000000000000000e+00  4.5329357423181775e-03 -1.8303082556577994e-02 0.0000000000000000e+00  -6.0755494345046982e-04 -1.8712386034023316e-02 0.0000000000000000e+00  -7.5039697026441044e-03 -1.9009869135210411e-02 0.0000000000000000e+00  -1.6462239932544819e-02 -1.9185989412132256e-02 0.0000000000000000e+00  -2.7807785083994022e-02 -1.9232335251808192e-02 0.0000000000000000e+00  -4.1880167427592832e-02 -1.9141920331493773e-02 0.0000000000000000e+00  -5.9026531241402801e-02 -1.8909469985730832e-02 0.0000000000000000e+00  -7.9594122132158274e-02 -1.8531684287828195e-02 0.0000000000000000e+00  -1.0392230662953925e-01 -1.8007463101794515e-02 0.0000000000000000e+00  -1.3233460198611230e-01 -1.7338077548831311e-02 0.0000000000000000e+00  -1.6513127089081103e-01 -1.6527257858788905e-02 0.0000000000000000e+00  -2.0258303199296460e-01 -1.5581110057263462e-02 0.0000000000000000e+00  0.0000000000000000e+00 4.4252749667505792e-04 0.0000000000000000e+00  -2.4711067204974727e-04 4.0050202543396218e-04 0.0000000000000000e+00  -4.8059800812952401e-04 2.7657538029584249e-04 0.0000000000000000e+00  -6.8755092177413628e-04 7.1160046841074168e-05 0.0000000000000000e+00  -8.5537941040631372e-04 -2.1495907071267199e-04 0.0000000000000000e+00  -9.7171610840389748e-04 -5.8068081261759884e-04 0.0000000000000000e+00  -1.0245680164077601e-03 -1.0245680164111331e-03 0.0000000000000000e+00  -1.0025173885934921e-03 -1.5448155056879945e-03 0.0000000000000000e+00  -8.9493344307663755e-04 -2.1392211775476981e-03 0.0000000000000000e+00  -6.9221370636160680e-04 -2.8051569465979524e-03 0.0000000000000000e+00  -3.8607257523042335e-04 -3.5395376648381131e-03 0.0000000000000000e+00  3.0107799794339360e-05 -4.3387876427887374e-03 0.0000000000000000e+00  5.6084937551627583e-04 -5.1988051160131131e-03 0.0000000000000000e+00  1.2080568883595308e-03 -6.1149253411531572e-03 0.0000000000000000e+00  1.9703860545304936e-03 -7.0818832136008650e-03 0.0000000000000000e+00  2.8424827838664508e-03 -8.0937764756649922e-03 0.0000000000000000e+00  3.8140741518679164e-03 -9.1440307673941110e-03 0.0000000000000000e+00  4.8688920193211182e-03 -1.0225367977380563e-02 0.0000000000000000e+00  5.9834117000734195e-03 -1.1329779584421136e-02 0.0000000000000000e+00  7.1253915449965965e-03 -1.2448506945795496e-02 0.0000000000000000e+00  8.2522054366379397e-03 -1.3572030786106618e-02 0.0000000000000000e+00  9.3089697703910255e-03 -1.4690072470411004e-02 0.0000000000000000e+00  1.0226480359660462e-02 -1.5791610000888988e-02 0.0000000000000000e+00  1.0918993586320676e-02 -1.6864912042003771e-02 0.0000000000000000e+00  1.1281910488085816e-02 -1.7897593627094307e-02 0.0000000000000000e+00  1.1189452239240312e-02 -1.8876697480414147e-02 0.0000000000000000e+00  1.0492449626914360e-02 -1.9788805028661587e-02 0.0000000000000000e+00  9.0164053004763642e-03 -2.0620181069546890e-02 0.0000000000000000e+00  6.5600217175792062e-03 -2.1356955575102310e-02 0.0000000000000000e+00  2.8944138883314047e-03 -2.1985345075604085e-02 0.0000000000000000e+00  -2.2367633345389210e-03 -2.2491914337243655e-02 0.0000000000000000e+00  -9.1160568319184395e-03 -2.2863876498794886e-02 0.0000000000000000e+00  -1.8049653313664257e-02 -2.3089426459523558e-02 0.0000000000000000e+00  -2.9363420780541681e-02 -2.315