<?xml version="1.0"?>
<VTKFile type="UnstructuredGrid"  version="0.1"  >
<UnstructuredGrid>
<Piece  NumberOfPoints="1681" NumberOfCells="3200">
<Points>
<DataArray  type="Float64"  NumberOfComponents="3"  format="ascii">0 0 0  0.5 0 0  1 0 0  1.5 0 0  2 0 0  2.5 0 0  3 0 0  3.5 0 0  4 0 0  4.5 0 0  5 0 0  5.5 0 0  6 0 0  6.5 0 0  7 0 0  7.5 0 0  8 0 0  8.5 0 0  9 0 0  9.5 0 0  10 0 0  10.5 0 0  11 0 0  11.5 0 0  12 0 0  12.5 0 0  13 0 0  13.5 0 0  14 0 0  14.5 0 0  15 0 0  15.5 0 0  16 0 0  16.5 0 0  17 0 0  17.5 0 0  18 0 0  18.5 0 0  19 0 0  19.5 0 0  20 0 0  0 0.5 0  0.5 0.5 0  1 0.5 0  1.5 0.5 0  2 0.5 0  2.5 0.5 0  3 0.5 0  3.5 0.5 0  4 0.5 0  4.5 0.5 0  5 0.5 0  5.5 0.5 0  6 0.5 0  6.5 0.5 0  7 0.5 0  7.5 0.5 0  8 0.5 0  8.5 0.5 0  9 0.5 0  9.5 0.5 0  10 0.5 0  10.5 0.5 0  11 0.5 0  11.5 0.5 0  12 0.5 0  12.5 0.5 0  13 0.5 0  13.5 0.5 0  14 0.5 0  14.5 0.5 0  15 0.5 0  15.5 0.5 0  16 0.5 0  16.5 0.5 0  17 0.5 0  17.5 0.5 0  18 0.5 0  18.5 0.5 0  19 0.5 0  19.5 0.5 0  20 0.5 0  0 1 0  0.5 1 0  1 1 0  1.5 1 0  2 1 0  2.5 1 0  3 1 0  3.5 1 0  4 1 0  4.5 1 0  5 1 0  5.5 1 0  6 1 0  6.5 1 0  7 1 0  7.5 1 0  8 1 0  8.5 1 0  9 1 0  9.5 1 0  10 1 0  10.5 1 0  11 1 0  11.5 1 0  12 1 0  12.5 1 0  13 1 0  13.5 1 0  14 1 0  14.5 1 0  15 1 0  15.5 1 0  16 1 0  16.5 1 0  17 1 0  17.5 1 0  18 1 0  18.5 1 0  19 1 0  19.5 1 0  20 1 0  0 1.5 0  0.5 1.5 0  1 1.5 0  1.5 1.5 0  2 1.5 0  2.5 1.5 0  3 1.5 0  3.5 1.5 0  4 1.5 0  4.5 1.5 0  5 1.5 0  5.5 1.5 0  6 1.5 0  6.5 1.5 0  7 1.5 0  7.5 1.5 0  8 1.5 0  8.5 1.5 0  9 1.5 0  9.5 1.5 0  10 1.5 0  10.5 1.5 0  11 1.5 0  11.5 1.5 0  12 1.5 0  12.5 1.5 0  13 1.5 0  13.5 1.5 0  14 1.5 0  14.5 1.5 0  15 1.5 0  15.5 1.5 0  16 1.5 0  16.5 1.5 0  17 1.5 0  17.5 1.5 0  18 1.5 0  18.5 1.5 0  19 1.5 0  19.5 1.5 0  20 1.5 0  0 2 0  0.5 2 0  1 2 0  1.5 2 0  2 2 0  2.5 2 0  3 2 0  3.5 2 0  4 2 0  4.5 2 0  5 2 0  5.5 2 0  6 2 0  6.5 2 0  7 2 0  7.5 2 0  8 2 0  8.5 2 0  9 2 0  9.5 2 0  10 2 0  10.5 2 0  11 2 0  11.5 2 0  12 2 0  12.5 2 0  13 2 0  13.5 2 0  14 2 0  14.5 2 0  15 2 0  15.5 2 0  16 2 0  16.5 2 0  17 2 0  17.5 2 0  18 2 0  18.5 2 0  19 2 0  19.5 2 0  20 2 0  0 2.5 0  0.5 2.5 0  1 2.5 0  1.5 2.5 0  2 2.5 0  2.5 2.5 0  3 2.5 0  3.5 2.5 0  4 2.5 0  4.5 2.5 0  5 2.5 0  5.5 2.5 0  6 2.5 0  6.5 2.5 0  7 2.5 0  7.5 2.5 0  8 2.5 0  8.5 2.5 0  9 2.5 0  9.5 2.5 0  10 2.5 0  10.5 2.5 0  11 2.5 0  11.5 2.5 0  12 2.5 0  12.5 2.5 0  13 2.5 0  13.5 2.5 0  14 2.5 0  14.5 2.5 0  15 2.5 0  15.5 2.5 0  16 2.5 0  16.5 2.5 0  17 2.5 0  17.5 2.5 0  18 2.5 0  18.5 2.5 0  19 2.5 0  19.5 2.5 0  20 2.5 0  0 3 0  0.5 3 0  1 3 0  1.5 3 0  2 3 0  2.5 3 0  3 3 0  3.5 3 0  4 3 0  4.5 3 0  5 3 0  5.5 3 0  6 3 0  6.5 3 0  7 3 0  7.5 3 0  8 3 0  8.5 3 0  9 3 0  9.5 3 0  10 3 0  10.5 3 0  11 3 0  11.5 3 0  12 3 0  12.5 3 0  13 3 0  13.5 3 0  14 3 0  14.5 3 0  15 3 0  15.5 3 0  16 3 0  16.5 3 0  17 3 0  17.5 3 0  18 3 0  18.5 3 0  19 3 0  19.5 3 0  20 3 0  0 3.5 0  0.5 3.5 0  1 3.5 0  1.5 3.5 0  2 3.5 0  2.5 3.5 0  3 3.5 0  3.5 3.5 0  4 3.5 0  4.5 3.5 0  5 3.5 0  5.5 3.5 0  6 3.5 0  6.5 3.5 0  7 3.5 0  7.5 3.5 0  8 3.5 0  8.5 3.5 0  9 3.5 0  9.5 3.5 0  10 3.5 0  10.5 3.5 0  11 3.5 0  11.5 3.5 0  12 3.5 0  12.5 3.5 0  13 3.5 0  13.5 3.5 0  14 3.5 0  14.5 3.5 0  15 3.5 0  15.5 3.5 0  16 3.5 0  16.5 3.5 0  17 3.5 0  17.5 3.5 0  18 3.5 0  18.5 3.5 0  19 3.5 0  19.5 3.5 0  20 3.5 0  0 4 0  0.5 4 0  1 4 0  1.5 4 0  2 4 0  2.5 4 0  3 4 0  3.5 4 0  4 4 0  4.5 4 0  5 4 0  5.5 4 0  6 4 0  6.5 4 0  7 4 0  7.5 4 0  8 4 0  8.5 4 0  9 4 0  9.5 4 0  10 4 0  10.5 4 0  11 4 0  11.5 4 0  12 4 0  12.5 4 0  13 4 0  13.5 4 0  14 4 0  14.5 4 0  15 4 0  15.5 4 0  16 4 0  16.5 4 0  17 4 0  17.5 4 0  18 4 0  18.5 4 0  19 4 0  19.5 4 0  20 4 0  0 4.5 0  0.5 4.5 0  1 4.5 0  1.5 4.5 0  2 4.5 0  2.5 4.5 0  3 4.5 0  3.5 4.5 0  4 4.5 0  4.5 4.5 0  5 4.5 0  5.5 4.5 0  6 4.5 0  6.5 4.5 0  7 4.5 0  7.5 4.5 0  8 4.5 0  8.5 4.5 0  9 4.5 0  9.5 4.5 0  10 4.5 0  10.5 4.5 0  11 4.5 0  11.5 4.5 0  12 4.5 0  12.5 4.5 0  13 4.5 0  13.5 4.5 0  14 4.5 0  14.5 4.5 0  15 4.5 0  15.5 4.5 0  16 4.5 0  16.5 4.5 0  17 4.5 0  17.5 4.5 0  18 4.5 0  18.5 4.5 0  19 4.5 0  19.5 4.5 0  20 4.5 0  0 5 0  0.5 5 0  1 5 0  1.5 5 0  2 5 0  2.5 5 0  3 5 0  3.5 5 0  4 5 0  4.5 5 0  5 5 0  5.5 5 0  6 5 0  6.5 5 0  7 5 0  7.5 5 0  8 5 0  8.5 5 0  9 5 0  9.5 5 0  10 5 0  10.5 5 0  11 5 0  11.5 5 0  12 5 0  12.5 5 0  13 5 0  13.5 5 0  14 5 0  14.5 5 0  15 5 0  15.5 5 0  16 5 0  16.5 5 0  17 5 0  17.5 5 0  18 5 0  18.5 5 0  19 5 0  19.5 5 0  20 5 0  0 5.5 0  0.5 5.5 0  1 5.5 0  1.5 5.5 0  2 5.5 0  2.5 5.5 0  3 5.5 0  3.5 5.5 0  4 5.5 0  4.5 5.5 0  5 5.5 0  5.5 5.5 0  6 5.5 0  6.5 5.5 0  7 5.5 0  7.5 5.5 0  8 5.5 0  8.5 5.5 0  9 5.5 0  9.5 5.5 0  10 5.5 0  10.5 5.5 0  11 5.5 0  11.5 5.5 0  12 5.5 0  12.5 5.5 0  13 5.5 0  13.5 5.5 0  14 5.5 0  14.5 5.5 0  15 5.5 0  15.5 5.5 0  16 5.5 0  16.5 5.5 0  17 5.5 0  17.5 5.5 0  18 5.5 0  18.5 5.5 0  19 5.5 0  19.5 5.5 0  20 5.5 0  0 6 0  0.5 6 0  1 6 0  1.5 6 0  2 6 0  2.5 6 0  3 6 0  3.5 6 0  4 6 0  4.5 6 0  5 6 0  5.5 6 0  6 6 0  6.5 6 0  7 6 0  7.5 6 0  8 6 0  8.5 6 0  9 6 0  9.5 6 0  10 6 0  10.5 6 0  11 6 0  11.5 6 0  12 6 0  12.5 6 0  13 6 0  13.5 6 0  14 6 0  14.5 6 0  15 6 0  15.5 6 0  16 6 0  16.5 6 0  17 6 0  17.5 6 0  18 6 0  18.5 6 0  19 6 0  19.5 6 0  20 6 0  0 6.5 0  0.5 6.5 0  1 6.5 0  1.5 6.5 0  2 6.5 0  2.5 6.5 0  3 6.5 0  3.5 6.5 0  4 6.5 0  4.5 6.5 0  5 6.5 0  5.5 6.5 0  6 6.5 0  6.5 6.5 0  7 6.5 0  7.5 6.5 0  8 6.5 0  8.5 6.5 0  9 6.5 0  9.5 6.5 0  10 6.5 0  10.5 6.5 0  11 6.5 0  11.5 6.5 0  12 6.5 0  12.5 6.5 0  13 6.5 0  13.5 6.5 0  14 6.5 0  14.5 6.5 0  15 6.5 0  15.5 6.5 0  16 6.5 0  16.5 6.5 0  17 6.5 0  17.5 6.5 0  18 6.5 0  18.5 6.5 0  19 6.5 0  19.5 6.5 0  20 6.5 0  0 7 0  0.5 7 0  1 7 0  1.5 7 0  2 7 0  2.5 7 0  3 7 0  3.5 7 0  4 7 0  4.5 7 0  5 7 0  5.5 7 0  6 7 0  6.5 7 0  7 7 0  7.5 7 0  8 7 0  8.5 7 0  9 7 0  9.5 7 0  10 7 0  10.5 7 0  11 7 0  11.5 7 0  12 7 0  12.5 7 0  13 7 0  13.5 7 0  14 7 0  14.5 7 0  15 7 0  15.5 7 0  16 7 0  16.5 7 0  17 7 0  17.5 7 0  18 7 0  18.5 7 0  19 7 0  19.5 7 0  20 7 0  0 7.5 0  0.5 7.5 0  1 7.5 0  1.5 7.5 0  2 7.5 0  2.5 7.5 0  3 7.5 0  3.5 7.5 0  4 7.5 0  4.5 7.5 0  5 7.5 0  5.5 7.5 0  6 7.5 0  6.5 7.5 0  7 7.5 0  7.5 7.5 0  8 7.5 0  8.5 7.5 0  9 7.5 0  9.5 7.5 0  10 7.5 0  10.5 7.5 0  11 7.5 0  11.5 7.5 0  12 7.5 0  12.5 7.5 0  13 7.5 0  13.5 7.5 0  14 7.5 0  14.5 7.5 0  15 7.5 0  15.5 7.5 0  16 7.5 0  16.5 7.5 0  17 7.5 0  17.5 7.5 0  18 7.5 0  18.5 7.5 0  19 7.5 0  19.5 7.5 0  20 7.5 0  0 8 0  0.5 8 0  1 8 0  1.5 8 0  2 8 0  2.5 8 0  3 8 0  3.5 8 0  4 8 0  4.5 8 0  5 8 0  5.5 8 0  6 8 0  6.5 8 0  7 8 0  7.5 8 0  8 8 0  8.5 8 0  9 8 0  9.5 8 0  10 8 0  10.5 8 0  11 8 0  11.5 8 0  12 8 0  12.5 8 0  13 8 0  13.5 8 0  14 8 0  14.5 8 0  15 8 0  15.5 8 0  16 8 0  16.5 8 0  17 8 0  17.5 8 0  18 8 0  18.5 8 0  19 8 0  19.5 8 0  20 8 0  0 8.5 0  0.5 8.5 0  1 8.5 0  1.5 8.5 0  2 8.5 0  2.5 8.5 0  3 8.5 0  3.5 8.5 0  4 8.5 0  4.5 8.5 0  5 8.5 0  5.5 8.5 0  6 8.5 0  6.5 8.5 0  7 8.5 0  7.5 8.5 0  8 8.5 0  8.5 8.5 0  9 8.5 0  9.5 8.5 0  10 8.5 0  10.5 8.5 0  11 8.5 0  11.5 8.5 0  12 8.5 0  12.5 8.5 0  13 8.5 0  13.5 8.5 0  14 8.5 0  14.5 8.5 0  15 8.5 0  15.5 8.5 0  16 8.5 0  16.5 8.5 0  17 8.5 0  17.5 8.5 0  18 8.5 0  18.5 8.5 0  19 8.5 0  19.5 8.5 0  20 8.5 0  0 9 0  0.5 9 0  1 9 0  1.5 9 0  2 9 0  2.5 9 0  3 9 0  3.5 9 0  4 9 0  4.5 9 0  5 9 0  5.5 9 0  6 9 0  6.5 9 0  7 9 0  7.5 9 0  8 9 0  8.5 9 0  9 9 0  9.5 9 0  10 9 0  10.5 9 0  11 9 0  11.5 9 0  12 9 0  12.5 9 0  13 9 0  13.5 9 0  14 9 0  14.5 9 0  15 9 0  15.5 9 0  16 9 0  16.5 9 0  17 9 0  17.5 9 0  18 9 0  18.5 9 0  19 9 0  19.5 9 0  20 9 0  0 9.5 0  0.5 9.5 0  1 9.5 0  1.5 9.5 0  2 9.5 0  2.5 9.5 0  3 9.5 0  3.5 9.5 0  4 9.5 0  4.5 9.5 0  5 9.5 0  5.5 9.5 0  6 9.5 0  6.5 9.5 0  7 9.5 0  7.5 9.5 0  8 9.5 0  8.5 9.5 0  9 9.5 0  9.5 9.5 0  10 9.5 0  10.5 9.5 0  11 9.5 0  11.5 9.5 0  12 9.5 0  12.5 9.5 0  13 9.5 0  13.5 9.5 0  14 9.5 0  14.5 9.5 0  15 9.5 0  15.5 9.5 0  16 9.5 0  16.5 9.5 0  17 9.5 0  17.5 9.5 0  18 9.5 0  18.5 9.5 0  19 9.5 0  19.5 9.5 0  20 9.5 0  0 10 0  0.5 10 0  1 10 0  1.5 10 0  2 10 0  2.5 10 0  3 10 0  3.5 10 0  4 10 0  4.5 10 0  5 10 0  5.5 10 0  6 10 0  6.5 10 0  7 10 0  7.5 10 0  8 10 0  8.5 10 0  9 10 0  9.5 10 0  10 10 0  10.5 10 0  11 10 0  11.5 10 0  12 10 0  12.5 10 0  13 10 0  13.5 10 0  14 10 0  14.5 10 0  15 10 0  15.5 10 0  16 10 0  16.5 10 0  17 10 0  17.5 10 0  18 10 0  18.5 10 0  19 10 0  19.5 10 0  20 10 0  0 10.5 0  0.5 10.5 0  1 10.5 0  1.5 10.5 0  2 10.5 0  2.5 10.5 0  3 10.5 0  3.5 10.5 0  4 10.5 0  4.5 10.5 0  5 10.5 0  5.5 10.5 0  6 10.5 0  6.5 10.5 0  7 10.5 0  7.5 10.5 0  8 10.5 0  8.5 10.5 0  9 10.5 0  9.5 10.5 0  10 10.5 0  10.5 10.5 0  11 10.5 0  11.5 10.5 0  12 10.5 0  12.5 10.5 0  13 10.5 0  13.5 10.5 0  14 10.5 0  14.5 10.5 0  15 10.5 0  15.5 10.5 0  16 10.5 0  16.5 10.5 0  17 10.5 0  17.5 10.5 0  18 10.5 0  18.5 10.5 0  19 10.5 0  19.5 10.5 0  20 10.5 0  0 11 0  0.5 11 0  1 11 0  1.5 11 0  2 11 0  2.5 11 0  3 11 0  3.5 11 0  4 11 0  4.5 11 0  5 11 0  5.5 11 0  6 11 0  6.5 11 0  7 11 0  7.5 11 0  8 11 0  8.5 11 0  9 11 0  9.5 11 0  10 11 0  10.5 11 0  11 11 0  11.5 11 0  12 11 0  12.5 11 0  13 11 0  13.5 11 0  14 11 0  14.5 11 0  15 11 0  15.5 11 0  16 11 0  16.5 11 0  17 11 0  17.5 11 0  18 11 0  18.5 11 0  19 11 0  19.5 11 0  20 11 0  0 11.5 0  0.5 11.5 0  1 11.5 0  1.5 11.5 0  2 11.5 0  2.5 11.5 0  3 11.5 0  3.5 11.5 0  4 11.5 0  4.5 11.5 0  5 11.5 0  5.5 11.5 0  6 11.5 0  6.5 11.5 0  7 11.5 0  7.5 11.5 0  8 11.5 0  8.5 11.5 0  9 11.5 0  9.5 11.5 0  10 11.5 0  10.5 11.5 0  11 11.5 0  11.5 11.5 0  12 11.5 0  12.5 11.5 0  13 11.5 0  13.5 11.5 0  14 11.5 0  14.5 11.5 0  15 11.5 0  15.5 11.5 0  16 11.5 0  16.5 11.5 0  17 11.5 0  17.5 11.5 0  18 11.5 0  18.5 11.5 0  19 11.5 0  19.5 11.5 0  20 11.5 0  0 12 0  0.5 12 0  1 12 0  1.5 12 0  2 12 0  2.5 12 0  3 12 0  3.5 12 0  4 12 0  4.5 12 0  5 12 0  5.5 12 0  6 12 0  6.5 12 0  7 12 0  7.5 12 0  8 12 0  8.5 12 0  9 12 0  9.5 12 0  10 12 0  10.5 12 0  11 12 0  11.5 12 0  12 12 0  12.5 12 0  13 12 0  13.5 12 0  14 12 0  14.5 12 0  
[...]
<PointData  Vectors="f_5623-0"> 
<DataArray  type="Float64"  Name="f_5623-0"  NumberOfComponents="3" format="ascii">0.0000000000000000e+00 0.0000000000000000e+00 0.0000000000000000e+00  8.8134806223310373e-10 0.0000000000000000e+00 0.0000000000000000e+00  6.2477423825658986e-09 0.0000000000000000e+00 0.0000000000000000e+00  2.0753682614782336e-08 0.0000000000000000e+00 0.0000000000000000e+00  4.8931999792950291e-08 0.0000000000000000e+00 0.0000000000000000e+00  9.5250348101903028e-08 0.0000000000000000e+00 0.0000000000000000e+00  1.6409311988933787e-07 0.0000000000000000e+00 0.0000000000000000e+00  2.5973971100186800e-07 0.0000000000000000e+00 0.0000000000000000e+00  3.8634118968554816e-07 0.0000000000000000e+00 0.0000000000000000e+00  5.4789527770390619e-07 0.0000000000000000e+00 0.0000000000000000e+00  7.4821958491021471e-07 0.0000000000000000e+00 0.0000000000000000e+00  9.9092303714226441e-07 0.0000000000000000e+00 0.0000000000000000e+00  1.2793754548453637e-06 0.0000000000000000e+00 0.0000000000000000e+00  1.6166752842126981e-06 0.0000000000000000e+00 0.0000000000000000e+00  2.0056155700997464e-06 0.0000000000000000e+00 0.0000000000000000e+00  2.4486483478065247e-06 0.0000000000000000e+00 0.0000000000000000e+00  2.9478477417448967e-06 0.0000000000000000e+00 0.0000000000000000e+00  3.5048721866326466e-06 0.0000000000000000e+00 0.0000000000000000e+00  4.1209263217428241e-06 0.0000000000000000e+00 0.0000000000000000e+00  4.7967232473301661e-06 0.0000000000000000e+00 0.0000000000000000e+00  5.5324479847055727e-06 0.0000000000000000e+00 0.0000000000000000e+00  6.3277231210211664e-06 0.0000000000000000e+00 0.0000000000000000e+00  7.1815777501738518e-06 0.0000000000000000e+00 0.0000000000000000e+00  8.0924209220085619e-06 0.0000000000000000e+00 0.0000000000000000e+00  9.0580208648438174e-06 0.0000000000000000e+00 0.0000000000000000e+00  1.0075491215786694e-05 0.0000000000000000e+00 0.0000000000000000e+00  1.1141285298455808e-05 0.0000000000000000e+00 0.0000000000000000e+00  1.2251199009410525e-05 0.0000000000000000e+00 0.0000000000000000e+00  1.3400381787201787e-05 0.0000000000000000e+00 0.0000000000000000e+00  1.4583352788911976e-05 0.0000000000000000e+00 0.0000000000000000e+00  1.5794014087490629e-05 0.0000000000000000e+00 0.0000000000000000e+00  1.7025640192822522e-05 0.0000000000000000e+00 0.0000000000000000e+00  1.8270791450872419e-05 0.0000000000000000e+00 0.0000000000000000e+00  1.9521010798552802e-05 0.0000000000000000e+00 0.0000000000000000e+00  2.0765886349247848e-05 0.0000000000000000e+00 0.0000000000000000e+00  2.1990009086178375e-05 0.0000000000000000e+00 0.0000000000000000e+00  2.3161269134033094e-05 0.0000000000000000e+00 0.0000000000000000e+00  2.4177279469672775e-05 0.0000000000000000e+00 0.0000000000000000e+00  2.4713955727048566e-05 0.0000000000000000e+00 0.0000000000000000e+00  2.8152769907693308e-05 0.0000000000000000e+00 0.0000000000000000e+00  -5.9192802908612723e-05 0.0000000000000000e+00 0.0000000000000000e+00  0.0000000000000000e+00 8.8134810169153821e-10 0.0000000000000000e+00  -1.5726846501549932e-09 -1.5726846461619850e-09 0.0000000000000000e+00  1.5175495170823732e-09 -8.4570139190107450e-09 0.0000000000000000e+00  1.3738491277858790e-08 -1.9877336653464188e-08 0.0000000000000000e+00  3.9627627818914894e-08 -3.5796900401970716e-08 0.0000000000000000e+00  8.3657254144902086e-08 -5.6145580794075214e-08 0.0000000000000000e+00  1.5021421459329537e-07 -8.0830199964651264e-08 0.0000000000000000e+00  2.4358025981870266e-07 -1.0973474102055947e-07 0.0000000000000000e+00  3.6790938308537272e-07 -1.4271896549637616e-07 0.0000000000000000e+00  5.2720303969133285e-07 -1.7961675294228433e-07 0.0000000000000000e+00  7.2528350857235240e-07 -2.2023433846156675e-07 0.0000000000000000e+00  9.6576539659334020e-07 -2.6434847112896957e-07 0.0000000000000000e+00  1.2520252531861834e-06 -3.1170454542805905e-07 0.0000000000000000e+00  1.5871692989674288e-06 -3.6201476992753468e-07 0.0000000000000000e+00  1.9739993454357236e-06 -4.1495646082947880e-07 0.0000000000000000e+00  2.4149770743958865e-06 -4.7017056531192392e-07 0.0000000000000000e+00  2.9121869561534412e-06 -5.2726052838836723e-07 0.0000000000000000e+00  3.4672982052566726e-06 -5.8579163613400888e-07 0.0000000000000000e+00  4.0815263075742795e-06 -6.4529097382065037e-07 0.0000000000000000e+00  4.7555947902007822e-06 -7.0524814230731094e-07 0.0000000000000000e+00  5.4896980487441784e-06 -7.6511687600570245e-07 0.0000000000000000e+00  6.2834661784424426e-06 -8.2431770066848744e-07 0.0000000000000000e+00  7.1359328674800496e-06 -8.8224173999089016e-07 0.0000000000000000e+00  8.0455074948371851e-06 -9.3825574407080301e-07 0.0000000000000000e+00  9.0099525769954289e-06 -9.9170834788897576e-07 0.0000000000000000e+00  1.0026367610998124e-05 -1.0419374279840408e-06 0.0000000000000000e+00  1.1091180049328458e-05 -1.0882782159565201e-06 0.0000000000000000e+00  1.2200143452691290e-05 -1.1300713504427730e-06 0.0000000000000000e+00  1.3348341434510158e-05 -1.1666691096661315e-06 0.0000000000000000e+00  1.4530193049316629e-05 -1.1974358957607883e-06 0.0000000000000000e+00  1.5739449033025657e-05 -1.2217338694453111e-06 0.0000000000000000e+00  1.6969154656002184e-05 -1.2388713521857852e-06 0.0000000000000000e+00  1.8211523971073312e-05 -1.2479552728729186e-06 0.0000000000000000e+00  1.9457597166570432e-05 -1.2474817870206033e-06 0.0000000000000000e+00  2.0696376485973856e-05 -1.2341578468776182e-06 0.0000000000000000e+00  2.1912735313025315e-05 -1.1992749578021730e-06 0.0000000000000000e+00  2.3082952514002196e-05 -1.1167868227514168e-06 0.0000000000000000e+00  2.4172633032524601e-05 -9.0401360313614906e-07 0.0000000000000000e+00  2.5228378494990429e-05 -3.2278681035525500e-07 0.0000000000000000e+00  2.7344445896097339e-05 9.2304737249060381e-07 0.0000000000000000e+00  -6.1071312777727341e-05 1.5654349244231374e-06 0.0000000000000000e+00  0.0000000000000000e+00 6.2477424296719617e-09 0.0000000000000000e+00  -8.4570139066632992e-09 1.5175495504542424e-09 0.0000000000000000e+00  -1.2241448316511072e-08 -1.2241448308052849e-08 0.0000000000000000e+00  -6.8947762554118388e-09 -3.5088028776040593e-08 0.0000000000000000e+00  1.2123165898836548e-08 -6.6932650954751817e-08 0.0000000000000000e+00  4.9285534624528489e-08 -1.0763608612788754e-07 0.0000000000000000e+00  1.0898286319792026e-07 -1.5701427759684856e-07 0.0000000000000000e+00  1.9550284564293556e-07 -2.1483712502500056e-07 0.0000000000000000e+00  3.1300773751674914e-07 -2.8082596618197263e-07 0.0000000000000000e+00  4.6550985895197642e-07 -3.5465045576359493e-07 0.0000000000000000e+00  6.5684522371995031e-07 -4.3592508389769808e-07 0.0000000000000000e+00  8.9064524536527026e-07 -5.2420546918709331e-07 0.0000000000000000e+00  1.1703064626100354e-06 -6.1898456057667382e-07 0.0000000000000000e+00  1.4989582679032093e-06 -7.1968889254362205e-07 0.0000000000000000e+00  1.8794286851815290e-06 -8.2567506870642058e-07 0.0000000000000000e+00  2.3142083395681169e-06 -9.3622668263219251e-07 0.0000000000000000e+00  2.8054128598002043e-06 -1.0505519006624214e-06 0.0000000000000000e+00  3.3547440708996445e-06 -1.1677819670442323e-06 0.0000000000000000e+00  3.9634504670610874e-06 -1.2869709035628999e-06 0.0000000000000000e+00  4.6322875763015271e-06 -1.4070966847089656e-06 0.0000000000000000e+00  5.3614789617921533e-06 -1.5270641604194111e-06 0.0000000000000000e+00  6.1506787093727716e-06 -1.6457099782575191e-06 0.0000000000000000e+00  6.9989363292910109e-06 -1.7618096960590016e-06 0.0000000000000000e+00  7.9046650160749354e-06 -1.8740871726522446e-06 0.0000000000000000e+00  8.8656141208038968e-06 -1.9812261516800170e-06 0.0000000000000000e+00  9.8788464262559715e-06 -2.0818836366855824e-06 0.0000000000000000e+00  1.0940720254338329e-05 -2.1747041002390490e-06 0.0000000000000000e+00  1.2046875360747136e-05 -2.2583324990593498e-06 0.0000000000000000e+00  1.3192219595378165e-05 -2.3314219481962768e-06 0.0000000000000000e+00  1.4370909731364570e-05 -2.3926274370905394e-06 0.0000000000000000e+00  1.5576313470826077e-05 -2.4405671560266746e-06 0.0000000000000000e+00  1.6800928541675012e-05 -2.4737105088953987e-06 0.0000000000000000e+00  1.8036217168161263e-05 -2.4900984919328444e-06 0.0000000000000000e+00  1.9272293738319547e-05 -2.4866717607829933e-06 0.0000000000000000e+00  2.0497417254937569e-05 -2.4576602040327216e-06 0.0000000000000000e+00  2.1697483740509366e-05 -2.3907210825590742e-06 0.0000000000000000e+00  2.2857077115282010e-05 -2.2579840215300073e-06 0.0000000000000000e+00  2.3969791732322569e-05 -1.9984641062390243e-06 0.0000000000000000e+00  2.5087560759945567e-05 -1.5054021057164229e-06 0.0000000000000000e+00  2.6508032469027935e-05 -7.2363517223646655e-07 0.0000000000000000e+00  -6.2914622630391121e-05 3.0576765089895185e-07 0.0000000000000000e+00  0.0000000000000000e+00 2.0753682652977245e-08 0.0000000000000000e+00  -1.9877336646329378e-08 1.3738491311440200e-08 0.0000000000000000e+00  -3.5088028777183122e-08 -6.8947762285963415e-09 0.0000000000000000e+00  -4.1165960329443598e-08 -4.1165960312893680e-08 0.0000000000000000e+00  -3.3571081810025634e-08 -8.8936888437484088e-08 0.0000000000000000e+00  -7.8267945979822602e-09 -1.5000081173243569e-07 0.0000000000000000e+00  4.0463286816283462e-08 -2.2408472290242576e-07 0.0000000000000000e+00  1.1559610827148023e-07 -3.1084712733875083e-07 0.0000000000000000e+00  2.2174716043004962e-07 -4.0987420603537460e-07 0.0000000000000000e+00  3.6294644411623698e-07 -5.2067508102654969e-07 0.0000000000000000e+00  5.4305252506344635e-07 -6.4267651051661103e-07 0.0000000000000000e+00  7.6572458023444956e-07 -7.7521721310514641e-07 0.0000000000000000e+00  1.0343923311361313e-06 -9.1754201376304650e-07 0.0000000000000000e+00  1.3522238045400920e-06 -1.0687960212633575e-06 0.0000000000000000e+00  1.7220909207125310e-06 -1.2280191062540942e-06 0.0000000000000000e+00  2.1465330017696369e-06 -1.3941409717318221e-06 0.0000000000000000e+00  2.6277183830412587e-06 -1.5659771624746708e-06 0.0000000000000000e+00  3.1674044285977638e-06 -1.7422263844643117e-06 0.0000000000000000e+00  3.7668963652484239e-06 -1.9214695358347131e-06 0.0000000000000000e+00  4.4270054707105614e-06 -2.1021708514635636e-06 0.0000000000000000e+00  5.1480072615468323e-06 -2.2826815462366021e-06 0.0000000000000000e+00  5.9296004137515000e-06 -2.4612462892205440e-06 0.0000000000000000e+00  6.7708671860434105e-06 -2.6360127285221093e-06 0.0000000000000000e+00  7.6702360758397302e-06 -2.8050440890078185e-06 0.0000000000000000e+00  8.6254472576488936e-06 -2.9663345369284631e-06 0.0000000000000000e+00  9.6335209678242026e-06 -3.1178264357704234e-06 0.0000000000000000e+00  1.0690728256703076e-05 -3.2574276305585280e-06 0.0000000000000000e+00  1.1792562274523921e-05 -3.3830251270044531e-06 0.0000000000000000e+00  1.2933706173938522e-05 -3.4924882261701684e-06 0.0000000000000000e+00  1.4107990481376307e-05 -3.5836478094169524e-06 0.0000000000000000e+00  1.5308328182150827e-05 -3.6542258786729793e-06 0.0000000000000000e+00  1.6526610507914372e-05 -3.7016640846675494e-06 0.0000000000000000e+00  1.7753545013278104e-05 -3.7227487213609660e-06 0.0000000000000000e+00  1.8978437365748948e-05 -3.7128283923804647e-06 0.0000000000000000e+00  2.0189016457500970e-05 -3.6642360002949112e-06 0.0000000000000000e+00  2.1371747515737775e-05 -3.5632691846999692e-06 0.0000000000000000e+00  2.2514096243750238e-05 -3.3851092144332588e-06 0.0000000000000000e+00  2.3612604124236947e-05 -3.0882833249823522e-06 0.0000000000000000e+00  2.4693212148084089e-05 -2.6209138632283111e-06 0.0000000000000000e+00  2.5896004483568394e-05 -1.9712447118646029e-06 0.0000000000000000e+00  -6.3641821702086997e-05 -1.2474187924925608e-06 0.0000000000000000e+00  0.0000000000000000e+00 4.8931999823461742e-08 0.0000000000000000e+00  -3.5796900396862770e-08 3.9627627846245411e-08 0.0000000000000000e+00  -6.6932650953447942e-08 1.2123165942614197e-08 0.0000000000000000e+00  -8.8936888456197322e-08 -3.3571081781244718e-08 0.0000000000000000e+00  -9.7269846335847949e-08 -9.7269846321712134e-08 0.0000000000000000e+00  -8.7450705388192257e-08 -1.7870090116412319e-07 0.0000000000000000e+00  -5.5075399930531377e-08 -2.7750581579220431e-07 0.0000000000000000e+00  4.1652140058582130e-09 -3.9323608262889313e-07 0.0000000000000000e+00  9.4464298583678506e-08 -5.2534776611959547e-07 0.0000000000000000e+00  2.1987579817184571e-07 -6.7319508548068445e-07 0.0000000000000000e+00  3.8428915792286857e-07 -8.3602319483624872e-07 0.0000000000000000e+00  5.9140189615111265e-07 -1.0129604057481397e-06 0.0000000000000000e+00  8.4468988771340481e-07 -1.2030100910669665e-06 0.0000000000000000e+00  1.1473752408198360e-06 -1.4050425587996805e-06 0.0000000000000000e+00  1.5023917100347997e-06 -1.6177872327043342e-06 0.0000000000000000e+00  1.9123476690179854e-06 -1.8398255279671133e-06 0.0000000000000000e+00  2.3794867572107100e-06 -2.0695848699596169e-06 0.0000000000000000e+00  2.9056464214174940e-06 -2.3053343411239850e-06 0.0000000000000000e+00  3.4922146854118664e-06 -2.5451824721174298e-06 0.0000000000000000e+00  4.1400855986187559e-06 -2.7870776978217273e-06 0.0000000000000000e+00  4.8496139138616588e-06 -3.0288119520283039e-06 0.0000000000000000e+00  5.6205696256089814e-06 -3.2680278027721558e-06 0.0000000000000000e+00  6.4520930265647621e-06 -3.5022293330343892e-06 0.0000000000000000e+00  7.3426508899126425e-06 -3.7287966808724855e-06 0.0000000000000000e+00  8.2899941940071593e-06 -3.9450036445815987e-06 0.0000000000000000e+00  9.2911174311582978e-06 -4.1480369239938866e-06 0.0000000000000000e+00  1.0342218887647208e-05 -4.3350141831640409e-06 0.0000000000000000e+00  1.1438660280758759e-05 -4.5029957797203117e-06 0.0000000000000000e+00  1.2574922761636431e-05 -4.6489809515573213e-06 0.0000000000000000e+00  1.3744554759802756e-05 -4.7698721711281288e-06 0.0000000000000000e+00  1.4940106419976017e-05 -4.8623789109135752e-06 0.0000000000000000e+00  1.6153048433744614e-05 -4.9228104588098611e-06 0.0000000000000000e+00  1.7373688172143956e-05 -4.9466718411146944e-06 0.0000000000000000e+00  1.8591144140495982e-05 -4.9279260073622386e-06 0.0000000000000000e+00  1.9793569661665945e-05 -4.8577419904251607e-06 0.0000000000000000e+00  2.0969125323063811e-05 -4.7226326383350188e-06 0.0000000000000000e+00  2.2108812280718039e-05 -4.5025211942784164e-06 0.0000000000000000e+00  2.3213053193018850e-05 -4.1715960824204790e-06 0.0000000000000000e+00  2.4303117266762087e-05 -3.7105108758670865e-06 0.0000000000000000e+00  2.5491753515840643e-05 -3.1437505166831079e-06 0.0000000000000000e+00  -6.4065464979127851e-05 -2.6124874400697576e-06 0.0000000000000000e+00  0.0000000000000000e+00 9.5250348127950614e-08 0.0000000000000000e+00  -5.6145580792076864e-08 8.3657254181758911e-08 0.0000000000000000e+00  -1.0763608612225524e-07 4.9285534679158553e-08 0.0000000000000000e+00  -1.5000081169527267e-07 -7.8267945552938230e-09 0.0000000000000000e+00  -1.7870090109950018e-07 -8.7450705371086612e-08 0.0000000000000000e+00  -1.8925210388646128e-07 -1.8925210392469436e-07 0.0000000000000000e+00  -1.7724203685874166e-07 -3.1279174844722034e-07 0.0000000000000000e+00  -1.3834733134601963e-07 -4.5751985897897860e-07 0.0000000000000000e+00  -6.8353542210300504e-08 -6.2276913316063899e-07 0.0000000000000000e+00  3.6822691224035730e-08 -8.0774650467089418e-07 0.0000000000000000e+00  1.8110930241124765e-07 -1.0115238715623222e-06 0.0000000000000000e+00  3.6825214181932572e-07 -1.2330280378756788e-06 0.0000000000000000e+00  6.0178581096508529e-07 -1.4710301540479606e-06 0.0000000000000000e+00  8.8500181177405958e-07 -1.7241349944221534e-06 0.0000000000000000e+00  1.2209138809437412e-06 -1.9907704825791778e-06 0.0000000000000000e+00  1.6122204534943295e-06 -2.2691779378969132e-06 0.0000000000000000e+00  2.0612642863034884e-06 -2.5574035878247745e-06 0.0000000000000000e+00  2.5699893765077018e-06 -2.8532919427836957e-06 0.0000000000000000e+00  3.1398954231042416e-06 -3.1544816651161137e-06 0.0000000000000000e+00  3.7719902030767342e-06 -3.4584045643549871e-06 0.0000000000000000e+00  4.4667403395927738e-06 -3.7622882944838282e-06 0.0000000000000000e+00  5.2240210467434609e-06 -4.0631632182766313e-06 0.0000000000000000e+00  6.0430654898882549e-06 -4.3578736519299436e-06 0.0000000000000000e+00  6.9224144067256692e-06 -4.6430933207917581e-06 0.0000000000000000e+00  7.8598665542291710e-06 -4.9153442054224775e-06 0.0000000000000000e+00  8.8524303535095653e-06 -5.1710169444649048e-06 0.0000000000000000e+00  9.8962768239423512e-06 -5.4063893571167151e-06 0.0000000000000000e+00  1.0986693590881068e-05 -5.6176371197859084e-06 0.0000000000000000e+00  1.2118039703639842e-05 -5.8008266667570996e-06 0.0000000000000000e+00  1.3283701978679347e-05 -5.9518742234911850e-06 0.0000000000000000e+00  1.4476057365369355e-05 -6.0664456982899508e-06 0.0000000000000000e+00  1.5686456497642799e-05 -6.1397597314497853e-06 0.0000000000000000e+00  1.6905269703028463e-05 -6.1662435873868647e-06 0.0000000000000000e+00  1.8122094759738126e-05 -6.1389930552259129e-06 0.0000000000000000e+00  1.9326342061144212e-05 -6.0490494363991975e-06 0.0000000000000000e+00  2.0508610961642163e-05 -5.8847536489057268e-06 0.0000000000000000e+00  2.1663494685065049e-05 -5.6321399342422066e-06 0.0000000000000000e+00  2.2794304826748243e-05 -5.2788670036512500e-06 0.0000000000000000e+00  2.3918391814368443e-05 -4.8262701819591005e-06 0.0000000000000000e+00  2.5127848230426441e-05 -4.3120921130381769e-06 0.0000000000000000e+00  -6.4456959847575940e-05 -3.8419417543014337e-06 0.0000000000000000e+00  0.0000000000000000e+00 1.6409311990140306e-07 0.0000000000000000e+00  -8.0830199959508557e-08 1.5021421463498368e-07 0.0000000000000000e+00  -1.5701427758508539e-07 1.0898286322961332e-07 0.0000000000000000e+00  -2.2408472287273270e-07 4.0463286821304422e-08 0.0000000000000000e+00  -2.7750581577603291e-07 -5.5075399924515438e-08 0.0000000000000000e+00  -3.1279174842877615e-07 -1.7724203687504744e-07 0.0000000000000000e+00  -3.2552251112685120e-07 -3.2552251114904855e-07 0.0000000000000000e+00  -3.1135976699303496e-07 -4.9927301099180936e-07 0.0000000000000000e+00  -2.6606537497833216e-07 -6.9771137456376393e-07 0.0000000000000000e+00  -1.8552220090768177e-07 -9.1990691792590545e-07 0.0000000000000000e+00  -6.5757224024151798e-08 -1.1647689565493260e-06 0.0000000000000000e+00  9.7032866395185574e-08 -1.4310342664542614e-06 0.0000000000000000e+00  3.0645332629070863e-07 -1.7172538008672344e-06 0.0000000000000000e+00  5.6588001553133105e-07 -2.0217790337920630e-06 0.0000000000000000e+00  8.7842484472631683e-07 -2.3427484164535733e-06 0.0000000000000000e+00  1.2468978671807719e-06 -2.6780744892675925e-06 0.0000000000000000e+00  1.6737659517902216e-06 -3.0254322962769265e-06 0.0000000000000000e+00  2.1611080801495407e-06 -3.3822498048090395e-06 0.0000000000000000e+00  2.7105674347903725e-06 -3.7457010910428372e-06 0.0000000000000000e+00  3.3233005770166339e-06 -4.1127030440881736e-06 0.0000000000000000e+00  3.9999241600537739e-06 -4.4799162979579615e-06 0.0000000000000000e+00  4.7404597714031119e-06 -4.8437509555802864e-06 0.0000000000000000e+00  5.5442776332371846e-06 -5.2003774055559656e-06 0.0000000000000000e+00  6.4100400202180724e-06 -5.5457420883734987e-06 0.0000000000000000e+00  7.3356453748453552e-06 -5.8755873746187849e-06 0.0000000000000000e+00  8.3181742336353529e-06 -6.1854736626306006e-06 0.0000000000000000e+00  9.3538383288632175e-06 -6.4708002578909418e-06 0.0000000000000000e+00  1.0437934804456789e-05 -6.7268193693116725e-06 0.0000000000000000e+00  1.1564808853193772e-05 -6.9486345019064391e-06 0.0000000000000000e+00  1.2727831255948718e-05 -7.1311706376588177e-06 0.0000000000000000e+00  1.3919404153344189e-05 -7.2690995416808488e-06 0.0000000000000000e+00  1.5131022401591922e-05 -7.3567018746925198e-06 0.0000000000000000e+00  1.6353444569406944e-05 -7.3876559250594877e-06 0.0000000000000000e+00  1.7577073863928020e-05 -7.3547792471094816e-06 0.0000000000000000e+00  1.8792716465450125e-05 -