<?xml version="1.0"?>
<VTKFile type="UnstructuredGrid"  version="0.1"  >
<UnstructuredGrid>
<Piece  NumberOfPoints="1681" NumberOfCells="3200">
<Points>
<DataArray  type="Float64"  NumberOfComponents="3"  format="ascii">0 0 0  0.5 0 0  1 0 0  1.5 0 0  2 0 0  2.5 0 0  3 0 0  3.5 0 0  4 0 0  4.5 0 0  5 0 0  5.5 0 0  6 0 0  6.5 0 0  7 0 0  7.5 0 0  8 0 0  8.5 0 0  9 0 0  9.5 0 0  10 0 0  10.5 0 0  11 0 0  11.5 0 0  12 0 0  12.5 0 0  13 0 0  13.5 0 0  14 0 0  14.5 0 0  15 0 0  15.5 0 0  16 0 0  16.5 0 0  17 0 0  17.5 0 0  18 0 0  18.5 0 0  19 0 0  19.5 0 0  20 0 0  0 0.5 0  0.5 0.5 0  1 0.5 0  1.5 0.5 0  2 0.5 0  2.5 0.5 0  3 0.5 0  3.5 0.5 0  4 0.5 0  4.5 0.5 0  5 0.5 0  5.5 0.5 0  6 0.5 0  6.5 0.5 0  7 0.5 0  7.5 0.5 0  8 0.5 0  8.5 0.5 0  9 0.5 0  9.5 0.5 0  10 0.5 0  10.5 0.5 0  11 0.5 0  11.5 0.5 0  12 0.5 0  12.5 0.5 0  13 0.5 0  13.5 0.5 0  14 0.5 0  14.5 0.5 0  15 0.5 0  15.5 0.5 0  16 0.5 0  16.5 0.5 0  17 0.5 0  17.5 0.5 0  18 0.5 0  18.5 0.5 0  19 0.5 0  19.5 0.5 0  20 0.5 0  0 1 0  0.5 1 0  1 1 0  1.5 1 0  2 1 0  2.5 1 0  3 1 0  3.5 1 0  4 1 0  4.5 1 0  5 1 0  5.5 1 0  6 1 0  6.5 1 0  7 1 0  7.5 1 0  8 1 0  8.5 1 0  9 1 0  9.5 1 0  10 1 0  10.5 1 0  11 1 0  11.5 1 0  12 1 0  12.5 1 0  13 1 0  13.5 1 0  14 1 0  14.5 1 0  15 1 0  15.5 1 0  16 1 0  16.5 1 0  17 1 0  17.5 1 0  18 1 0  18.5 1 0  19 1 0  19.5 1 0  20 1 0  0 1.5 0  0.5 1.5 0  1 1.5 0  1.5 1.5 0  2 1.5 0  2.5 1.5 0  3 1.5 0  3.5 1.5 0  4 1.5 0  4.5 1.5 0  5 1.5 0  5.5 1.5 0  6 1.5 0  6.5 1.5 0  7 1.5 0  7.5 1.5 0  8 1.5 0  8.5 1.5 0  9 1.5 0  9.5 1.5 0  10 1.5 0  10.5 1.5 0  11 1.5 0  11.5 1.5 0  12 1.5 0  12.5 1.5 0  13 1.5 0  13.5 1.5 0  14 1.5 0  14.5 1.5 0  15 1.5 0  15.5 1.5 0  16 1.5 0  16.5 1.5 0  17 1.5 0  17.5 1.5 0  18 1.5 0  18.5 1.5 0  19 1.5 0  19.5 1.5 0  20 1.5 0  0 2 0  0.5 2 0  1 2 0  1.5 2 0  2 2 0  2.5 2 0  3 2 0  3.5 2 0  4 2 0  4.5 2 0  5 2 0  5.5 2 0  6 2 0  6.5 2 0  7 2 0  7.5 2 0  8 2 0  8.5 2 0  9 2 0  9.5 2 0  10 2 0  10.5 2 0  11 2 0  11.5 2 0  12 2 0  12.5 2 0  13 2 0  13.5 2 0  14 2 0  14.5 2 0  15 2 0  15.5 2 0  16 2 0  16.5 2 0  17 2 0  17.5 2 0  18 2 0  18.5 2 0  19 2 0  19.5 2 0  20 2 0  0 2.5 0  0.5 2.5 0  1 2.5 0  1.5 2.5 0  2 2.5 0  2.5 2.5 0  3 2.5 0  3.5 2.5 0  4 2.5 0  4.5 2.5 0  5 2.5 0  5.5 2.5 0  6 2.5 0  6.5 2.5 0  7 2.5 0  7.5 2.5 0  8 2.5 0  8.5 2.5 0  9 2.5 0  9.5 2.5 0  10 2.5 0  10.5 2.5 0  11 2.5 0  11.5 2.5 0  12 2.5 0  12.5 2.5 0  13 2.5 0  13.5 2.5 0  14 2.5 0  14.5 2.5 0  15 2.5 0  15.5 2.5 0  16 2.5 0  16.5 2.5 0  17 2.5 0  17.5 2.5 0  18 2.5 0  18.5 2.5 0  19 2.5 0  19.5 2.5 0  20 2.5 0  0 3 0  0.5 3 0  1 3 0  1.5 3 0  2 3 0  2.5 3 0  3 3 0  3.5 3 0  4 3 0  4.5 3 0  5 3 0  5.5 3 0  6 3 0  6.5 3 0  7 3 0  7.5 3 0  8 3 0  8.5 3 0  9 3 0  9.5 3 0  10 3 0  10.5 3 0  11 3 0  11.5 3 0  12 3 0  12.5 3 0  13 3 0  13.5 3 0  14 3 0  14.5 3 0  15 3 0  15.5 3 0  16 3 0  16.5 3 0  17 3 0  17.5 3 0  18 3 0  18.5 3 0  19 3 0  19.5 3 0  20 3 0  0 3.5 0  0.5 3.5 0  1 3.5 0  1.5 3.5 0  2 3.5 0  2.5 3.5 0  3 3.5 0  3.5 3.5 0  4 3.5 0  4.5 3.5 0  5 3.5 0  5.5 3.5 0  6 3.5 0  6.5 3.5 0  7 3.5 0  7.5 3.5 0  8 3.5 0  8.5 3.5 0  9 3.5 0  9.5 3.5 0  10 3.5 0  10.5 3.5 0  11 3.5 0  11.5 3.5 0  12 3.5 0  12.5 3.5 0  13 3.5 0  13.5 3.5 0  14 3.5 0  14.5 3.5 0  15 3.5 0  15.5 3.5 0  16 3.5 0  16.5 3.5 0  17 3.5 0  17.5 3.5 0  18 3.5 0  18.5 3.5 0  19 3.5 0  19.5 3.5 0  20 3.5 0  0 4 0  0.5 4 0  1 4 0  1.5 4 0  2 4 0  2.5 4 0  3 4 0  3.5 4 0  4 4 0  4.5 4 0  5 4 0  5.5 4 0  6 4 0  6.5 4 0  7 4 0  7.5 4 0  8 4 0  8.5 4 0  9 4 0  9.5 4 0  10 4 0  10.5 4 0  11 4 0  11.5 4 0  12 4 0  12.5 4 0  13 4 0  13.5 4 0  14 4 0  14.5 4 0  15 4 0  15.5 4 0  16 4 0  16.5 4 0  17 4 0  17.5 4 0  18 4 0  18.5 4 0  19 4 0  19.5 4 0  20 4 0  0 4.5 0  0.5 4.5 0  1 4.5 0  1.5 4.5 0  2 4.5 0  2.5 4.5 0  3 4.5 0  3.5 4.5 0  4 4.5 0  4.5 4.5 0  5 4.5 0  5.5 4.5 0  6 4.5 0  6.5 4.5 0  7 4.5 0  7.5 4.5 0  8 4.5 0  8.5 4.5 0  9 4.5 0  9.5 4.5 0  10 4.5 0  10.5 4.5 0  11 4.5 0  11.5 4.5 0  12 4.5 0  12.5 4.5 0  13 4.5 0  13.5 4.5 0  14 4.5 0  14.5 4.5 0  15 4.5 0  15.5 4.5 0  16 4.5 0  16.5 4.5 0  17 4.5 0  17.5 4.5 0  18 4.5 0  18.5 4.5 0  19 4.5 0  19.5 4.5 0  20 4.5 0  0 5 0  0.5 5 0  1 5 0  1.5 5 0  2 5 0  2.5 5 0  3 5 0  3.5 5 0  4 5 0  4.5 5 0  5 5 0  5.5 5 0  6 5 0  6.5 5 0  7 5 0  7.5 5 0  8 5 0  8.5 5 0  9 5 0  9.5 5 0  10 5 0  10.5 5 0  11 5 0  11.5 5 0  12 5 0  12.5 5 0  13 5 0  13.5 5 0  14 5 0  14.5 5 0  15 5 0  15.5 5 0  16 5 0  16.5 5 0  17 5 0  17.5 5 0  18 5 0  18.5 5 0  19 5 0  19.5 5 0  20 5 0  0 5.5 0  0.5 5.5 0  1 5.5 0  1.5 5.5 0  2 5.5 0  2.5 5.5 0  3 5.5 0  3.5 5.5 0  4 5.5 0  4.5 5.5 0  5 5.5 0  5.5 5.5 0  6 5.5 0  6.5 5.5 0  7 5.5 0  7.5 5.5 0  8 5.5 0  8.5 5.5 0  9 5.5 0  9.5 5.5 0  10 5.5 0  10.5 5.5 0  11 5.5 0  11.5 5.5 0  12 5.5 0  12.5 5.5 0  13 5.5 0  13.5 5.5 0  14 5.5 0  14.5 5.5 0  15 5.5 0  15.5 5.5 0  16 5.5 0  16.5 5.5 0  17 5.5 0  17.5 5.5 0  18 5.5 0  18.5 5.5 0  19 5.5 0  19.5 5.5 0  20 5.5 0  0 6 0  0.5 6 0  1 6 0  1.5 6 0  2 6 0  2.5 6 0  3 6 0  3.5 6 0  4 6 0  4.5 6 0  5 6 0  5.5 6 0  6 6 0  6.5 6 0  7 6 0  7.5 6 0  8 6 0  8.5 6 0  9 6 0  9.5 6 0  10 6 0  10.5 6 0  11 6 0  11.5 6 0  12 6 0  12.5 6 0  13 6 0  13.5 6 0  14 6 0  14.5 6 0  15 6 0  15.5 6 0  16 6 0  16.5 6 0  17 6 0  17.5 6 0  18 6 0  18.5 6 0  19 6 0  19.5 6 0  20 6 0  0 6.5 0  0.5 6.5 0  1 6.5 0  1.5 6.5 0  2 6.5 0  2.5 6.5 0  3 6.5 0  3.5 6.5 0  4 6.5 0  4.5 6.5 0  5 6.5 0  5.5 6.5 0  6 6.5 0  6.5 6.5 0  7 6.5 0  7.5 6.5 0  8 6.5 0  8.5 6.5 0  9 6.5 0  9.5 6.5 0  10 6.5 0  10.5 6.5 0  11 6.5 0  11.5 6.5 0  12 6.5 0  12.5 6.5 0  13 6.5 0  13.5 6.5 0  14 6.5 0  14.5 6.5 0  15 6.5 0  15.5 6.5 0  16 6.5 0  16.5 6.5 0  17 6.5 0  17.5 6.5 0  18 6.5 0  18.5 6.5 0  19 6.5 0  19.5 6.5 0  20 6.5 0  0 7 0  0.5 7 0  1 7 0  1.5 7 0  2 7 0  2.5 7 0  3 7 0  3.5 7 0  4 7 0  4.5 7 0  5 7 0  5.5 7 0  6 7 0  6.5 7 0  7 7 0  7.5 7 0  8 7 0  8.5 7 0  9 7 0  9.5 7 0  10 7 0  10.5 7 0  11 7 0  11.5 7 0  12 7 0  12.5 7 0  13 7 0  13.5 7 0  14 7 0  14.5 7 0  15 7 0  15.5 7 0  16 7 0  16.5 7 0  17 7 0  17.5 7 0  18 7 0  18.5 7 0  19 7 0  19.5 7 0  20 7 0  0 7.5 0  0.5 7.5 0  1 7.5 0  1.5 7.5 0  2 7.5 0  2.5 7.5 0  3 7.5 0  3.5 7.5 0  4 7.5 0  4.5 7.5 0  5 7.5 0  5.5 7.5 0  6 7.5 0  6.5 7.5 0  7 7.5 0  7.5 7.5 0  8 7.5 0  8.5 7.5 0  9 7.5 0  9.5 7.5 0  10 7.5 0  10.5 7.5 0  11 7.5 0  11.5 7.5 0  12 7.5 0  12.5 7.5 0  13 7.5 0  13.5 7.5 0  14 7.5 0  14.5 7.5 0  15 7.5 0  15.5 7.5 0  16 7.5 0  16.5 7.5 0  17 7.5 0  17.5 7.5 0  18 7.5 0  18.5 7.5 0  19 7.5 0  19.5 7.5 0  20 7.5 0  0 8 0  0.5 8 0  1 8 0  1.5 8 0  2 8 0  2.5 8 0  3 8 0  3.5 8 0  4 8 0  4.5 8 0  5 8 0  5.5 8 0  6 8 0  6.5 8 0  7 8 0  7.5 8 0  8 8 0  8.5 8 0  9 8 0  9.5 8 0  10 8 0  10.5 8 0  11 8 0  11.5 8 0  12 8 0  12.5 8 0  13 8 0  13.5 8 0  14 8 0  14.5 8 0  15 8 0  15.5 8 0  16 8 0  16.5 8 0  17 8 0  17.5 8 0  18 8 0  18.5 8 0  19 8 0  19.5 8 0  20 8 0  0 8.5 0  0.5 8.5 0  1 8.5 0  1.5 8.5 0  2 8.5 0  2.5 8.5 0  3 8.5 0  3.5 8.5 0  4 8.5 0  4.5 8.5 0  5 8.5 0  5.5 8.5 0  6 8.5 0  6.5 8.5 0  7 8.5 0  7.5 8.5 0  8 8.5 0  8.5 8.5 0  9 8.5 0  9.5 8.5 0  10 8.5 0  10.5 8.5 0  11 8.5 0  11.5 8.5 0  12 8.5 0  12.5 8.5 0  13 8.5 0  13.5 8.5 0  14 8.5 0  14.5 8.5 0  15 8.5 0  15.5 8.5 0  16 8.5 0  16.5 8.5 0  17 8.5 0  17.5 8.5 0  18 8.5 0  18.5 8.5 0  19 8.5 0  19.5 8.5 0  20 8.5 0  0 9 0  0.5 9 0  1 9 0  1.5 9 0  2 9 0  2.5 9 0  3 9 0  3.5 9 0  4 9 0  4.5 9 0  5 9 0  5.5 9 0  6 9 0  6.5 9 0  7 9 0  7.5 9 0  8 9 0  8.5 9 0  9 9 0  9.5 9 0  10 9 0  10.5 9 0  11 9 0  11.5 9 0  12 9 0  12.5 9 0  13 9 0  13.5 9 0  14 9 0  14.5 9 0  15 9 0  15.5 9 0  16 9 0  16.5 9 0  17 9 0  17.5 9 0  18 9 0  18.5 9 0  19 9 0  19.5 9 0  20 9 0  0 9.5 0  0.5 9.5 0  1 9.5 0  1.5 9.5 0  2 9.5 0  2.5 9.5 0  3 9.5 0  3.5 9.5 0  4 9.5 0  4.5 9.5 0  5 9.5 0  5.5 9.5 0  6 9.5 0  6.5 9.5 0  7 9.5 0  7.5 9.5 0  8 9.5 0  8.5 9.5 0  9 9.5 0  9.5 9.5 0  10 9.5 0  10.5 9.5 0  11 9.5 0  11.5 9.5 0  12 9.5 0  12.5 9.5 0  13 9.5 0  13.5 9.5 0  14 9.5 0  14.5 9.5 0  15 9.5 0  15.5 9.5 0  16 9.5 0  16.5 9.5 0  17 9.5 0  17.5 9.5 0  18 9.5 0  18.5 9.5 0  19 9.5 0  19.5 9.5 0  20 9.5 0  0 10 0  0.5 10 0  1 10 0  1.5 10 0  2 10 0  2.5 10 0  3 10 0  3.5 10 0  4 10 0  4.5 10 0  5 10 0  5.5 10 0  6 10 0  6.5 10 0  7 10 0  7.5 10 0  8 10 0  8.5 10 0  9 10 0  9.5 10 0  10 10 0  10.5 10 0  11 10 0  11.5 10 0  12 10 0  12.5 10 0  13 10 0  13.5 10 0  14 10 0  14.5 10 0  15 10 0  15.5 10 0  16 10 0  16.5 10 0  17 10 0  17.5 10 0  18 10 0  18.5 10 0  19 10 0  19.5 10 0  20 10 0  0 10.5 0  0.5 10.5 0  1 10.5 0  1.5 10.5 0  2 10.5 0  2.5 10.5 0  3 10.5 0  3.5 10.5 0  4 10.5 0  4.5 10.5 0  5 10.5 0  5.5 10.5 0  6 10.5 0  6.5 10.5 0  7 10.5 0  7.5 10.5 0  8 10.5 0  8.5 10.5 0  9 10.5 0  9.5 10.5 0  10 10.5 0  10.5 10.5 0  11 10.5 0  11.5 10.5 0  12 10.5 0  12.5 10.5 0  13 10.5 0  13.5 10.5 0  14 10.5 0  14.5 10.5 0  15 10.5 0  15.5 10.5 0  16 10.5 0  16.5 10.5 0  17 10.5 0  17.5 10.5 0  18 10.5 0  18.5 10.5 0  19 10.5 0  19.5 10.5 0  20 10.5 0  0 11 0  0.5 11 0  1 11 0  1.5 11 0  2 11 0  2.5 11 0  3 11 0  3.5 11 0  4 11 0  4.5 11 0  5 11 0  5.5 11 0  6 11 0  6.5 11 0  7 11 0  7.5 11 0  8 11 0  8.5 11 0  9 11 0  9.5 11 0  10 11 0  10.5 11 0  11 11 0  11.5 11 0  12 11 0  12.5 11 0  13 11 0  13.5 11 0  14 11 0  14.5 11 0  15 11 0  15.5 11 0  16 11 0  16.5 11 0  17 11 0  17.5 11 0  18 11 0  18.5 11 0  19 11 0  19.5 11 0  20 11 0  0 11.5 0  0.5 11.5 0  1 11.5 0  1.5 11.5 0  2 11.5 0  2.5 11.5 0  3 11.5 0  3.5 11.5 0  4 11.5 0  4.5 11.5 0  5 11.5 0  5.5 11.5 0  6 11.5 0  6.5 11.5 0  7 11.5 0  7.5 11.5 0  8 11.5 0  8.5 11.5 0  9 11.5 0  9.5 11.5 0  10 11.5 0  10.5 11.5 0  11 11.5 0  11.5 11.5 0  12 11.5 0  12.5 11.5 0  13 11.5 0  13.5 11.5 0  14 11.5 0  14.5 11.5 0  15 11.5 0  15.5 11.5 0  16 11.5 0  16.5 11.5 0  17 11.5 0  17.5 11.5 0  18 11.5 0  18.5 11.5 0  19 11.5 0  19.5 11.5 0  20 11.5 0  0 12 0  0.5 12 0  1 12 0  1.5 12 0  2 12 0  2.5 12 0  3 12 0  3.5 12 0  4 12 0  4.5 12 0  5 12 0  5.5 12 0  6 12 0  6.5 12 0  7 12 0  7.5 12 0  8 12 0  8.5 12 0  9 12 0  9.5 12 0  10 12 0  10.5 12 0  11 12 0  11.5 12 0  12 12 0  12.5 12 0  13 12 0  13.5 12 0  14 12 0  14.5 12 0  
[...]
<PointData  Vectors="f_5623-0"> 
<DataArray  type="Float64"  Name="f_5623-0"  NumberOfComponents="3" format="ascii">0.0000000000000000e+00 0.0000000000000000e+00 0.0000000000000000e+00  2.2240722642846719e-06 0.0000000000000000e+00 0.0000000000000000e+00  1.3681011880299578e-05 0.0000000000000000e+00 0.0000000000000000e+00  4.7190176186296957e-05 0.0000000000000000e+00 0.0000000000000000e+00  1.1366928886328770e-04 0.0000000000000000e+00 0.0000000000000000e+00  2.2370036793821032e-04 0.0000000000000000e+00 0.0000000000000000e+00  3.8754317313918914e-04 0.0000000000000000e+00 0.0000000000000000e+00  6.1502175467522042e-04 0.0000000000000000e+00 0.0000000000000000e+00  9.1538594235414904e-04 0.0000000000000000e+00 0.0000000000000000e+00  1.2971455918378482e-03 0.0000000000000000e+00 0.0000000000000000e+00  1.7678683461322512e-03 0.0000000000000000e+00 0.0000000000000000e+00  2.3339304772576957e-03 0.0000000000000000e+00 0.0000000000000000e+00  3.0002087418016491e-03 0.0000000000000000e+00 0.0000000000000000e+00  3.7696990889833394e-03 0.0000000000000000e+00 0.0000000000000000e+00  4.6430457073456909e-03 0.0000000000000000e+00 0.0000000000000000e+00  5.6179614486476428e-03 0.0000000000000000e+00 0.0000000000000000e+00  6.6885183172419749e-03 0.0000000000000000e+00 0.0000000000000000e+00  7.8442847329632508e-03 0.0000000000000000e+00 0.0000000000000000e+00  9.0692850531690176e-03 0.0000000000000000e+00 0.0000000000000000e+00  1.0340756905785575e-02 0.0000000000000000e+00 0.0000000000000000e+00  1.1627683940806946e-02 0.0000000000000000e+00 0.0000000000000000e+00  1.2889086538214248e-02 0.0000000000000000e+00 0.0000000000000000e+00  1.4072061879006508e-02 0.0000000000000000e+00 0.0000000000000000e+00  1.5109578785263573e-02 0.0000000000000000e+00 0.0000000000000000e+00  1.5918053069898911e-02 0.0000000000000000e+00 0.0000000000000000e+00  1.6394756802384527e-02 0.0000000000000000e+00 0.0000000000000000e+00  1.6415150331505788e-02 0.0000000000000000e+00 0.0000000000000000e+00  1.5830268482620570e-02 0.0000000000000000e+00 0.0000000000000000e+00  1.4464339751988679e-02 0.0000000000000000e+00 0.0000000000000000e+00  1.2112864904158249e-02 0.0000000000000000e+00 0.0000000000000000e+00  8.5414217058759172e-03 0.0000000000000000e+00 0.0000000000000000e+00  3.4854854666649510e-03 0.0000000000000000e+00 0.0000000000000000e+00  -3.3484512004887221e-03 0.0000000000000000e+00 0.0000000000000000e+00  -1.2280222586558896e-02 0.0000000000000000e+00 0.0000000000000000e+00  -2.3651655053166021e-02 0.0000000000000000e+00 0.0000000000000000e+00  -3.7820549109832902e-02 0.0000000000000000e+00 0.0000000000000000e+00  -5.5153142049794532e-02 0.0000000000000000e+00 0.0000000000000000e+00  -7.6015368923548821e-02 0.0000000000000000e+00 0.0000000000000000e+00  -1.0076325328524081e-01 0.0000000000000000e+00 0.0000000000000000e+00  -1.2973207987462104e-01 0.0000000000000000e+00 0.0000000000000000e+00  -1.6322106363788763e-01 0.0000000000000000e+00 0.0000000000000000e+00  0.0000000000000000e+00 2.2240722590586162e-06 0.0000000000000000e+00  -5.1273138755996744e-06 -5.1273138754620866e-06 0.0000000000000000e+00  1.2244150767709350e-06 -2.2892762141677250e-05 0.0000000000000000e+00  2.9353671064394454e-05 -5.1230893320976703e-05 0.0000000000000000e+00  9.0286471797524384e-05 -9.0427916781806212e-05 0.0000000000000000e+00  1.9471397673528332e-04 -1.4047891133553672e-04 0.0000000000000000e+00  3.5294003281673657e-04 -2.0121692750855861e-04 0.0000000000000000e+00  5.7480830851866114e-04 -2.7238257174464983e-04 0.0000000000000000e+00  8.6958110079845402e-04 -3.5364646501825106e-04 0.0000000000000000e+00  1.2457796675815426e-03 -4.4461372109664031e-04 0.0000000000000000e+00  1.7109842360386895e-03 -5.4482233082927742e-04 0.0000000000000000e+00  2.2715857771485547e-03 -6.5373946020242215e-04 0.0000000000000000e+00  2.9324782916258186e-03 -7.7075700623565301e-04 0.0000000000000000e+00  3.6966777131320328e-03 -8.9518693381448111e-04 0.0000000000000000e+00  4.5648510055887048e-03 -1.0262566771914838e-03 0.0000000000000000e+00  5.5347365218955877e-03 -1.1631048299274162e-03 0.0000000000000000e+00  6.6004343174948799e-03 -1.3047773454619676e-03 0.0000000000000000e+00  7.7515431235982155e-03 -1.4502244889224780e-03 0.0000000000000000e+00  8.9721194610727258e-03 -1.5982988080903320e-03 0.0000000000000000e+00  1.0239434445716076e-02 -1.7477544218643126e-03 0.0000000000000000e+00  1.1522505899185126e-02 -1.8972479566734895e-03 0.0000000000000000e+00  1.2780388322474434e-02 -2.0453414922767276e-03 0.0000000000000000e+00  1.3960212174051950e-02 -2.1905079055279837e-03 0.0000000000000000e+00  1.4994977914131237e-02 -2.3311390192328517e-03 0.0000000000000000e+00  1.5801130632266687e-02 -2.4655569670620561e-03 0.0000000000000000e+00  1.6275968759668181e-02 -2.5920291643263481e-03 0.0000000000000000e+00  1.6294975810148028e-02 -2.7087872173669906e-03 0.0000000000000000e+00  1.5709206658877518e-02 -2.8140499956729021e-03 0.0000000000000000e+00  1.4342907230694878e-02 -2.9060509175873129e-03 0.0000000000000000e+00  1.1991593969219077e-02 -2.9830692506370602e-03 0.0000000000000000e+00  8.4208596526972011e-03 -3.0434649009482436e-03 0.0000000000000000e+00  3.3661948739566222e-03 -3.0857157793010731e-03 0.0000000000000000e+00  -3.4658920010134688e-03 -3.1084564276848896e-03 0.0000000000000000e+00  -1.2395220551353487e-02 -3.1105162474418741e-03 0.0000000000000000e+00  -2.3763608418196611e-02 -3.0909554916876800e-03 0.0000000000000000e+00  -3.7928865730703143e-02 -3.0490972004831901e-03 0.0000000000000000e+00  -5.5257289438772679e-02 -2.9845528360153625e-03 0.0000000000000000e+00  -7.6115020791365631e-02 -2.8972344828348154e-03 0.0000000000000000e+00  -1.0085881115264689e-01 -2.7873187339462536e-03 0.0000000000000000e+00  -1.2982702296208551e-01 -2.6550066726252768e-03 0.0000000000000000e+00  -1.6333310490912636e-01 -2.4995578835794057e-03 0.0000000000000000e+00  0.0000000000000000e+00 1.3681011876330538e-05 0.0000000000000000e+00  -2.2892762141769292e-05 1.2244150777428145e-06 0.0000000000000000e+00  -3.3563818644975387e-05 -3.3563818645303426e-05 0.0000000000000000e+00  -2.2236411400602389e-05 -9.0338512817420555e-05 0.0000000000000000e+00  2.1901971621273648e-05 -1.6899727135471189e-04 0.0000000000000000e+00  1.0950717707039564e-04 -2.6932517973671748e-04 0.0000000000000000e+00  2.5090099118718937e-04 -3.9096669146749700e-04 0.0000000000000000e+00  4.5595459582075439e-04 -5.3342379673918525e-04 0.0000000000000000e+00  7.3395992086857590e-04 -6.9606076831392081e-04 0.0000000000000000e+00  1.0934708217158722e-03 -8.7810599671400312e-04 0.0000000000000000e+00  1.5421049812190610e-03 -1.0786494402133292e-03 0.0000000000000000e+00  2.0862972236743156e-03 -1.2966368401664190e-03 0.0000000000000000e+00  2.7309928587309022e-03 -1.5308620258599036e-03 0.0000000000000000e+00  3.4792672433632261e-03 -1.7799582976613273e-03 0.0000000000000000e+00  4.3318552110983661e-03 -2.0423896010446849e-03 0.0000000000000000e+00  5.2865714704396563e-03 -2.3164420582202009e-03 0.0000000000000000e+00  6.3376006720941716e-03 -2.6002163719074426e-03 0.0000000000000000e+00  7.4746338389977520e-03 -2.8916216173533438e-03 0.0000000000000000e+00  8.6818266213440562e-03 -3.1883709693260507e-03 0.0000000000000000e+00  9.9365549068702753e-03 -3.4879799564427262e-03 0.0000000000000000e+00  1.1207945383587537e-02 -3.7877678880585061e-03 0.0000000000000000e+00  1.2455163602700955e-02 -4.0848631530635282e-03 0.0000000000000000e+00  1.3625450986805676e-02 -4.3762131400233465e-03 0.0000000000000000e+00  1.4651916264168686e-02 -4.6585995670130704e-03 0.0000000000000000e+00  1.5451107184641237e-02 -4.9286600278661214e-03 0.0000000000000000e+00  1.5920416077961224e-02 -5.1829165446045222e-03 0.0000000000000000e+00  1.5935408276717775e-02 -5.4178118458944463e-03 0.0000000000000000e+00  1.5347205005666751e-02 -5.6297539423369779e-03 0.0000000000000000e+00  1.3980099703781277e-02 -5.8151693148608104e-03 0.0000000000000000e+00  1.1629634229125543e-02 -5.9705646423639201e-03 0.0000000000000000e+00  8.0614015464484275e-03 -6.0925964499120864e-03 0.0000000000000000e+00  3.0108641593649260e-03 -6.1781473568503237e-03 0.0000000000000000e+00  -3.8155291214136550e-03 -6.2244067723585842e-03 0.0000000000000000e+00  -1.2737692773392827e-02 -6.2289529736046737e-03 0.0000000000000000e+00  -2.4097580434092120e-02 -6.1898325199758351e-03 0.0000000000000000e+00  -3.8253189469707849e-02 -6.1056316998131088e-03 0.0000000000000000e+00  -5.5571074825381497e-02 -5.9755324399758626e-03 0.0000000000000000e+00  -7.6417743562829016e-02 -5.7993409107026158e-03 0.0000000000000000e+00  -1.0115047546802181e-01 -5.5774760721806933e-03 0.0000000000000000e+00  -1.3010824702934531e-01 -5.3109576076661490e-03 0.0000000000000000e+00  -1.6360337391626339e-01 -5.0018401836361467e-03 0.0000000000000000e+00  0.0000000000000000e+00 4.7190176185081641e-05 0.0000000000000000e+00  -5.1230893323471805e-05 2.9353671063727720e-05 0.0000000000000000e+00  -9.0338512819012706e-05 -2.2236411400657236e-05 0.0000000000000000e+00  -1.0718766199252954e-04 -1.0718766199153899e-04 0.0000000000000000e+00  -9.1141694607776543e-05 -2.2517102604838491e-04 0.0000000000000000e+00  -3.1595974084489682e-05 -3.7575834432466716e-04 0.0000000000000000e+00  8.1765655518421175e-05 -5.5835862566091870e-04 0.0000000000000000e+00  2.5883264939498474e-04 -7.7220454099172719e-04 0.0000000000000000e+00  5.0893070968852246e-04 -1.0163443134175803e-03 0.0000000000000000e+00  8.4065992648304599e-04 -1.2896329507427083e-03 0.0000000000000000e+00  1.2616962000834247e-03 -1.5907221874236351e-03 0.0000000000000000e+00  1.7785450787081924e-03 -1.9180490390372071e-03 0.0000000000000000e+00  2.3962358749700934e-03 -2.2698231918560868e-03 0.0000000000000000e+00  3.1179419035029872e-03 -2.6440136851633989e-03 0.0000000000000000e+00  3.9445103271330230e-03 -3.0383354692850059e-03 0.0000000000000000e+00  4.8738826275624130e-03 -3.4502364859021048e-03 0.0000000000000000e+00  5.9003843417075432e-03 -3.8768859636474345e-03 0.0000000000000000e+00  7.0138607074191660e-03 -4.3151646725396427e-03 0.0000000000000000e+00  8.1986336322108378e-03 -4.7616579422843390e-03 0.0000000000000000e+00  9.4322554681827570e-03 -5.2126523213374028e-03 0.0000000000000000e+00  1.0684037146794832e-02 -5.6641368325792514e-03 0.0000000000000000e+00  1.1913333184764865e-02 -6.1118098634365603e-03 0.0000000000000000e+00  1.3067574981012044e-02 -6.5510928079047402e-03 0.0000000000000000e+00  1.4080057876372518e-02 -6.9771516471840087e-03 0.0000000000000000e+00  1.4867507843929336e-02 -7.3849277034399681e-03 0.0000000000000000e+00  1.5327481409676269e-02 -7.7691788097225111e-03 0.0000000000000000e+00  1.5335687897548108e-02 -8.1245320833213796e-03 0.0000000000000000e+00  1.4743365709534710e-02 -8.4455493343125951e-03 0.0000000000000000e+00  1.3374891758322684e-02 -8.7268058416624592e-03 0.0000000000000000e+00  1.1025850696280013e-02 -8.9629827341610267e-03 0.0000000000000000e+00  7.4618307728266439e-03 -9.1489724737564958e-03 0.0000000000000000e+00  2.4182358391070190e-03 -9.2799959210566659e-03 0.0000000000000000e+00  -4.3986036480844481e-03 -9.3517281662741838e-03 0.0000000000000000e+00  -1.3308785071882868e-02 -9.3604287766811105e-03 0.0000000000000000e+00  -2.4654513158320592e-02 -9.3030704344088441e-03 0.0000000000000000e+00  -3.8794106259344242e-02 -9.1774583089492649e-03 0.0000000000000000e+00  -5.6094507861404491e-02 -8.9823316320136303e-03 0.0000000000000000e+00  -7.6922668758178020e-02 -8.7174417272457942e-03 0.0000000000000000e+00  -1.0163633157827405e-01 -8.3836169907001070e-03 0.0000000000000000e+00  -1.3057487259854131e-01 -7.9828779944283584e-03 0.0000000000000000e+00  -1.6405093794864106e-01 -7.5187658101983513e-03 0.0000000000000000e+00  0.0000000000000000e+00 1.1366928886396603e-04 0.0000000000000000e+00  -9.0427916782177307e-05 9.0286471796941463e-05 0.0000000000000000e+00  -1.6899727135520637e-04 2.1901971622818409e-05 0.0000000000000000e+00  -2.2517102605246485e-04 -9.1141694604974220e-05 0.0000000000000000e+00  -2.4836855083417840e-04 -2.4836855083047472e-04 0.0000000000000000e+00  -2.2802238868440051e-04 -4.4916579403844498e-04 0.0000000000000000e+00  -1.5381806281903191e-04 -6.9272380242884366e-04 0.0000000000000000e+00  -1.5844434082102680e-05 -9.7801370271827616e-04 0.0000000000000000e+00  1.9526456946161375e-04 -1.3037727089072436e-03 0.0000000000000000e+00  4.8816715548568912e-04 -1.6684895827923482e-03 0.0000000000000000e+00  8.7061536287981109e-04 -2.0703886537628787e-03 0.0000000000000000e+00  1.3492096129161957e-03 -2.5074124337158030e-03 0.0000000000000000e+00  1.9290936488170780e-03 -2.9772032132347015e-03 0.0000000000000000e+00  2.6135754931134909e-03 -3.4770841385506259e-03 0.0000000000000000e+00  3.4036577516986413e-03 -4.0040403673557790e-03 0.0000000000000000e+00  4.2974581556005486e-03 -4.5547010065512790e-03 0.0000000000000000e+00  5.2894988772621701e-03 -5.1253226423624773e-03 0.0000000000000000e+00  6.3698411723815875e-03 -5.7117753806709415e-03 0.0000000000000000e+00  7.5230406749136440e-03 -6.3095324254898730e-03 0.0000000000000000e+00  8.7268987469345666e-03 -6.9136643377629486e-03 0.0000000000000000e+00  9.9509873605803829e-03 -7.5188392351171612e-03 0.0000000000000000e+00  1.1154929954195387e-02 -8.1193303150960544e-03 0.0000000000000000e+00  1.2286429624990420e-02 -8.7090322053084007e-03 0.0000000000000000e+00  1.3279050089073447e-02 -9.2814877567989063e-03 0.0000000000000000e+00  1.4049775260419808e-02 -9.8299269893687025e-03 0.0000000000000000e+00  1.4496401066235691e-02 -1.0347319948116204e-02 0.0000000000000000e+00  1.4494848657169108e-02 -1.0826445207363290e-02 0.0000000000000000e+00  1.3896530849955978e-02 -1.1259975613776611e-02 0.0000000000000000e+00  1.2525951128174246e-02 -1.1640582531719273e-02 0.0000000000000000e+00  1.0178762154527208e-02 -1.1961059263392864e-02 0.0000000000000000e+00  6.6205510562021772e-03 -1.2214463382875823e-02 0.0000000000000000e+00  1.5866415656007576e-03 -1.2394276381952654e-02 0.0000000000000000e+00  -5.2168034232949858e-03 -1.2494577260105579e-02 0.0000000000000000e+00  -1.4110142454528395e-02 -1.2510224577540491e-02 0.0000000000000000e+00  -2.5435937762816156e-02 -1.2437039264526002e-02 0.0000000000000000e+00  -3.9552959463236413e-02 -1.2271978665977059e-02 0.0000000000000000e+00  -5.6828688503233360e-02 -1.2013291966631146e-02 0.0000000000000000e+00  -7.7630683457499197e-02 -1.1660650141707193e-02 0.0000000000000000e+00  -1.0231734867719058e-01 -1.1215251135034621e-02 0.0000000000000000e+00  -1.3122878027465529e-01 -1.0679903694908193e-02 0.0000000000000000e+00  -1.6467848382592939e-01 -1.0059032152972311e-02 0.0000000000000000e+00  0.0000000000000000e+00 2.2370036793928387e-04 0.0000000000000000e+00  -1.4047891133690910e-04 1.9471397673472040e-04 0.0000000000000000e+00  -2.6932517973874537e-04 1.0950717707316069e-04 0.0000000000000000e+00  -3.7575834432855337e-04 -3.1595974081005626e-05 0.0000000000000000e+00  -4.4916579404047070e-04 -2.2802238868422449e-04 0.0000000000000000e+00  -4.7899867880144155e-04 -4.7899867879991754e-04 0.0000000000000000e+00  -4.5493890672821351e-04 -7.8351484814665731e-04 0.0000000000000000e+00  -3.6704846148482120e-04 -1.1402976175552322e-03 0.0000000000000000e+00  -2.0591278447941401e-04 -1.5477903266070928e-03 0.0000000000000000e+00  3.7196560394214256e-05 -2.0041332032802056e-03 0.0000000000000000e+00  3.7012470089730764e-04 -2.5071421412204199e-03 0.0000000000000000e+00  7.9958940559638034e-04 -3.0542858131961405e-03 0.0000000000000000e+00  1.3308773505130577e-03 -3.6426615087563766e-03 0.0000000000000000e+00  1.9674661498153660e-03 -4.2689702997226126e-03 0.0000000000000000e+00  2.7105553506311369e-03 -4.9294922633325820e-03 0.0000000000000000e+00  3.5584871680399621e-03 -5.6200626077260027e-03 0.0000000000000000e+00  4.5060353840386006e-03 -6.3360496685980578e-03 0.0000000000000000e+00  5.5435388478877459e-03 -7.0723358812534373e-03 0.0000000000000000e+00  6.6558547909479774e-03 -7.8233029781019925e-03 0.0000000000000000e+00  7.8211072435680311e-03 -8.5828228167744696e-03 0.0000000000000000e+00  9.0092079189782927e-03 -9.3442554074150089e-03 0.0000000000000000e+00  1.0180131899532789e-02 -1.0100455878083539e-02 0.0000000000000000e+00  1.1281939390636144e-02 -1.0843792290840294e-02 0.0000000000000000e+00  1.2248548893210273e-02 -1.1566176390772303e-02 0.0000000000000000e+00  1.2997287593448408e-02 -1.2259109521532602e-02 0.0000000000000000e+00  1.3426272575776187e-02 -1.2913746049217216e-02 0.0000000000000000e+00  1.3411712067625238e-02 -1.3520976661426844e-02 0.0000000000000000e+00  1.2805258692000721e-02 -1.4071533789506461e-02 0.0000000000000000e+00  1.1431594313695828e-02 -1.4556121056184729e-02 0.0000000000000000e+00  9.0864738526701388e-03 -1.4965567972692119e-02 0.0000000000000000e+00  5.5354959423416202e-03 -1.5291009985725607e-02 0.0000000000000000e+00  5.1389135322977750e-04 -1.5524092308137675e-02 0.0000000000000000e+00  -6.2723861946766841e-03 -1.5657193725695788e-02 0.0000000000000000e+00  -1.5144029146045665e-02 -1.5683663849878751e-02 0.0000000000000000e+00  -2.6444062293314481e-02 -1.5598064377141781e-02 0.0000000000000000e+00  -4.0531845104798805e-02 -1.5396402354095458e-02 0.0000000000000000e+00  -5.7775566546635251e-02 -1.5076341901856003e-02 0.0000000000000000e+00  -7.8543598690251765e-02 -1.4637380438949871e-02 0.0000000000000000e+00  -1.0319524899161570e-01 -1.4080973445018149e-02 0.0000000000000000e+00  -1.3207158017466591e-01 -1.3410577544286092e-02 0.0000000000000000e+00  -1.6548702523927367e-01 -1.2631531938508949e-02 0.0000000000000000e+00  0.0000000000000000e+00 3.8754317313627004e-04 0.0000000000000000e+00  -2.0121692750868592e-04 3.5294003281971162e-04 0.0000000000000000e+00  -3.9096669146641638e-04 2.5090099118849307e-04 0.0000000000000000e+00  -5.5835862565946283e-04 8.1765655523615452e-05 0.0000000000000000e+00  -6.9272380242822761e-04 -1.5381806281725109e-04 0.0000000000000000e+00  -7.8351484814623968e-04 -4.5493890672609893e-04 0.0000000000000000e+00  -8.2040578541722276e-04 -8.2040578541866561e-04 0.0000000000000000e+00  -7.9342840460672670e-04 -1.2487210681999047e-03 0.0000000000000000e+00  -6.9311358358222159e-04 -1.7380561275210796e-03 0.0000000000000000e+00  -5.1065250566694831e-04 -2.2862265661285561e-03 0.0000000000000000e+00  -2.3809197961825664e-04 -2.8906656841516261e-03 0.0000000000000000e+00  1.3142351954478857e-04 -3.5483959680968442e-03 0.0000000000000000e+00  6.0334999106369735e-04 -4.2559989719742671e-03 0.0000000000000000e+00  1.1813674822496090e-03 -5.0095842439793750e-03 0.0000000000000000e+00  1.8669121491505249e-03 -5.8047581295695289e-03 0.0000000000000000e+00  2.6585974499485133e-03 -6.6365934327483932e-03 0.0000000000000000e+00  3.5515027655723202e-03 -7.4996010705488617e-03 0.0000000000000000e+00  4.5363057504105870e-03 -8.3877050210048563e-03 0.0000000000000000e+00  5.5982334850832047e-03 -9.2942220452790231e-03 0.0000000000000000e+00  6.7158075719767965e-03 -1.0211847860551371e-02 0.0000000000000000e+00  7.8593603883191157e-03 -1.1132651651596459e-02 0.0000000000000000e+00  8.9893046825034705e-03 -1.2048081034511497e-02 0.0000000000000000e+00  1.0054147635574886e-02 -1.2948979821959902e-02 0.0000000000000000e+00  1.0988254610595580e-02 -1.3825621178054765e-02 0.0000000000000000e+00  1.1709388288687339e-02 -1.4667758975819841e-02 0.0000000000000000e+00  1.2116076745905568e-02 -1.5464700352163584e-02 0.0000000000000000e+00  1.2084899703609741e-02 -1.6205402545645339e-02 0.0000000000000000e+00  1.1467825066786562e-02 -1.6878597026484216e-02 0.0000000000000000e+00  1.0089775637556043e-02 -1.7472943581978911e-02 0.0000000000000000e+00  7.7466538963975274e-03 -1.7977216269482676e-02 0.0000000000000000e+00  4.2040935178393997e-03 -1.8380521844470307e-02 0.0000000000000000e+00  -8.0277036953651398e-04 -1.8672549278789072e-02 0.0000000000000000e+00  -7.5682261788387389e-03 -1.8843846239997946e-02 0.0000000000000000e+00  -1.6413366851831462e-02 -1.88861149831150