<?xml version="1.0"?>
<VTKFile type="UnstructuredGrid"  version="0.1"  >
<UnstructuredGrid>
<Piece  NumberOfPoints="1681" NumberOfCells="3200">
<Points>
<DataArray  type="Float64"  NumberOfComponents="3"  format="ascii">0 0 0  0.5 0 0  1 0 0  1.5 0 0  2 0 0  2.5 0 0  3 0 0  3.5 0 0  4 0 0  4.5 0 0  5 0 0  5.5 0 0  6 0 0  6.5 0 0  7 0 0  7.5 0 0  8 0 0  8.5 0 0  9 0 0  9.5 0 0  10 0 0  10.5 0 0  11 0 0  11.5 0 0  12 0 0  12.5 0 0  13 0 0  13.5 0 0  14 0 0  14.5 0 0  15 0 0  15.5 0 0  16 0 0  16.5 0 0  17 0 0  17.5 0 0  18 0 0  18.5 0 0  19 0 0  19.5 0 0  20 0 0  0 0.5 0  0.5 0.5 0  1 0.5 0  1.5 0.5 0  2 0.5 0  2.5 0.5 0  3 0.5 0  3.5 0.5 0  4 0.5 0  4.5 0.5 0  5 0.5 0  5.5 0.5 0  6 0.5 0  6.5 0.5 0  7 0.5 0  7.5 0.5 0  8 0.5 0  8.5 0.5 0  9 0.5 0  9.5 0.5 0  10 0.5 0  10.5 0.5 0  11 0.5 0  11.5 0.5 0  12 0.5 0  12.5 0.5 0  13 0.5 0  13.5 0.5 0  14 0.5 0  14.5 0.5 0  15 0.5 0  15.5 0.5 0  16 0.5 0  16.5 0.5 0  17 0.5 0  17.5 0.5 0  18 0.5 0  18.5 0.5 0  19 0.5 0  19.5 0.5 0  20 0.5 0  0 1 0  0.5 1 0  1 1 0  1.5 1 0  2 1 0  2.5 1 0  3 1 0  3.5 1 0  4 1 0  4.5 1 0  5 1 0  5.5 1 0  6 1 0  6.5 1 0  7 1 0  7.5 1 0  8 1 0  8.5 1 0  9 1 0  9.5 1 0  10 1 0  10.5 1 0  11 1 0  11.5 1 0  12 1 0  12.5 1 0  13 1 0  13.5 1 0  14 1 0  14.5 1 0  15 1 0  15.5 1 0  16 1 0  16.5 1 0  17 1 0  17.5 1 0  18 1 0  18.5 1 0  19 1 0  19.5 1 0  20 1 0  0 1.5 0  0.5 1.5 0  1 1.5 0  1.5 1.5 0  2 1.5 0  2.5 1.5 0  3 1.5 0  3.5 1.5 0  4 1.5 0  4.5 1.5 0  5 1.5 0  5.5 1.5 0  6 1.5 0  6.5 1.5 0  7 1.5 0  7.5 1.5 0  8 1.5 0  8.5 1.5 0  9 1.5 0  9.5 1.5 0  10 1.5 0  10.5 1.5 0  11 1.5 0  11.5 1.5 0  12 1.5 0  12.5 1.5 0  13 1.5 0  13.5 1.5 0  14 1.5 0  14.5 1.5 0  15 1.5 0  15.5 1.5 0  16 1.5 0  16.5 1.5 0  17 1.5 0  17.5 1.5 0  18 1.5 0  18.5 1.5 0  19 1.5 0  19.5 1.5 0  20 1.5 0  0 2 0  0.5 2 0  1 2 0  1.5 2 0  2 2 0  2.5 2 0  3 2 0  3.5 2 0  4 2 0  4.5 2 0  5 2 0  5.5 2 0  6 2 0  6.5 2 0  7 2 0  7.5 2 0  8 2 0  8.5 2 0  9 2 0  9.5 2 0  10 2 0  10.5 2 0  11 2 0  11.5 2 0  12 2 0  12.5 2 0  13 2 0  13.5 2 0  14 2 0  14.5 2 0  15 2 0  15.5 2 0  16 2 0  16.5 2 0  17 2 0  17.5 2 0  18 2 0  18.5 2 0  19 2 0  19.5 2 0  20 2 0  0 2.5 0  0.5 2.5 0  1 2.5 0  1.5 2.5 0  2 2.5 0  2.5 2.5 0  3 2.5 0  3.5 2.5 0  4 2.5 0  4.5 2.5 0  5 2.5 0  5.5 2.5 0  6 2.5 0  6.5 2.5 0  7 2.5 0  7.5 2.5 0  8 2.5 0  8.5 2.5 0  9 2.5 0  9.5 2.5 0  10 2.5 0  10.5 2.5 0  11 2.5 0  11.5 2.5 0  12 2.5 0  12.5 2.5 0  13 2.5 0  13.5 2.5 0  14 2.5 0  14.5 2.5 0  15 2.5 0  15.5 2.5 0  16 2.5 0  16.5 2.5 0  17 2.5 0  17.5 2.5 0  18 2.5 0  18.5 2.5 0  19 2.5 0  19.5 2.5 0  20 2.5 0  0 3 0  0.5 3 0  1 3 0  1.5 3 0  2 3 0  2.5 3 0  3 3 0  3.5 3 0  4 3 0  4.5 3 0  5 3 0  5.5 3 0  6 3 0  6.5 3 0  7 3 0  7.5 3 0  8 3 0  8.5 3 0  9 3 0  9.5 3 0  10 3 0  10.5 3 0  11 3 0  11.5 3 0  12 3 0  12.5 3 0  13 3 0  13.5 3 0  14 3 0  14.5 3 0  15 3 0  15.5 3 0  16 3 0  16.5 3 0  17 3 0  17.5 3 0  18 3 0  18.5 3 0  19 3 0  19.5 3 0  20 3 0  0 3.5 0  0.5 3.5 0  1 3.5 0  1.5 3.5 0  2 3.5 0  2.5 3.5 0  3 3.5 0  3.5 3.5 0  4 3.5 0  4.5 3.5 0  5 3.5 0  5.5 3.5 0  6 3.5 0  6.5 3.5 0  7 3.5 0  7.5 3.5 0  8 3.5 0  8.5 3.5 0  9 3.5 0  9.5 3.5 0  10 3.5 0  10.5 3.5 0  11 3.5 0  11.5 3.5 0  12 3.5 0  12.5 3.5 0  13 3.5 0  13.5 3.5 0  14 3.5 0  14.5 3.5 0  15 3.5 0  15.5 3.5 0  16 3.5 0  16.5 3.5 0  17 3.5 0  17.5 3.5 0  18 3.5 0  18.5 3.5 0  19 3.5 0  19.5 3.5 0  20 3.5 0  0 4 0  0.5 4 0  1 4 0  1.5 4 0  2 4 0  2.5 4 0  3 4 0  3.5 4 0  4 4 0  4.5 4 0  5 4 0  5.5 4 0  6 4 0  6.5 4 0  7 4 0  7.5 4 0  8 4 0  8.5 4 0  9 4 0  9.5 4 0  10 4 0  10.5 4 0  11 4 0  11.5 4 0  12 4 0  12.5 4 0  13 4 0  13.5 4 0  14 4 0  14.5 4 0  15 4 0  15.5 4 0  16 4 0  16.5 4 0  17 4 0  17.5 4 0  18 4 0  18.5 4 0  19 4 0  19.5 4 0  20 4 0  0 4.5 0  0.5 4.5 0  1 4.5 0  1.5 4.5 0  2 4.5 0  2.5 4.5 0  3 4.5 0  3.5 4.5 0  4 4.5 0  4.5 4.5 0  5 4.5 0  5.5 4.5 0  6 4.5 0  6.5 4.5 0  7 4.5 0  7.5 4.5 0  8 4.5 0  8.5 4.5 0  9 4.5 0  9.5 4.5 0  10 4.5 0  10.5 4.5 0  11 4.5 0  11.5 4.5 0  12 4.5 0  12.5 4.5 0  13 4.5 0  13.5 4.5 0  14 4.5 0  14.5 4.5 0  15 4.5 0  15.5 4.5 0  16 4.5 0  16.5 4.5 0  17 4.5 0  17.5 4.5 0  18 4.5 0  18.5 4.5 0  19 4.5 0  19.5 4.5 0  20 4.5 0  0 5 0  0.5 5 0  1 5 0  1.5 5 0  2 5 0  2.5 5 0  3 5 0  3.5 5 0  4 5 0  4.5 5 0  5 5 0  5.5 5 0  6 5 0  6.5 5 0  7 5 0  7.5 5 0  8 5 0  8.5 5 0  9 5 0  9.5 5 0  10 5 0  10.5 5 0  11 5 0  11.5 5 0  12 5 0  12.5 5 0  13 5 0  13.5 5 0  14 5 0  14.5 5 0  15 5 0  15.5 5 0  16 5 0  16.5 5 0  17 5 0  17.5 5 0  18 5 0  18.5 5 0  19 5 0  19.5 5 0  20 5 0  0 5.5 0  0.5 5.5 0  1 5.5 0  1.5 5.5 0  2 5.5 0  2.5 5.5 0  3 5.5 0  3.5 5.5 0  4 5.5 0  4.5 5.5 0  5 5.5 0  5.5 5.5 0  6 5.5 0  6.5 5.5 0  7 5.5 0  7.5 5.5 0  8 5.5 0  8.5 5.5 0  9 5.5 0  9.5 5.5 0  10 5.5 0  10.5 5.5 0  11 5.5 0  11.5 5.5 0  12 5.5 0  12.5 5.5 0  13 5.5 0  13.5 5.5 0  14 5.5 0  14.5 5.5 0  15 5.5 0  15.5 5.5 0  16 5.5 0  16.5 5.5 0  17 5.5 0  17.5 5.5 0  18 5.5 0  18.5 5.5 0  19 5.5 0  19.5 5.5 0  20 5.5 0  0 6 0  0.5 6 0  1 6 0  1.5 6 0  2 6 0  2.5 6 0  3 6 0  3.5 6 0  4 6 0  4.5 6 0  5 6 0  5.5 6 0  6 6 0  6.5 6 0  7 6 0  7.5 6 0  8 6 0  8.5 6 0  9 6 0  9.5 6 0  10 6 0  10.5 6 0  11 6 0  11.5 6 0  12 6 0  12.5 6 0  13 6 0  13.5 6 0  14 6 0  14.5 6 0  15 6 0  15.5 6 0  16 6 0  16.5 6 0  17 6 0  17.5 6 0  18 6 0  18.5 6 0  19 6 0  19.5 6 0  20 6 0  0 6.5 0  0.5 6.5 0  1 6.5 0  1.5 6.5 0  2 6.5 0  2.5 6.5 0  3 6.5 0  3.5 6.5 0  4 6.5 0  4.5 6.5 0  5 6.5 0  5.5 6.5 0  6 6.5 0  6.5 6.5 0  7 6.5 0  7.5 6.5 0  8 6.5 0  8.5 6.5 0  9 6.5 0  9.5 6.5 0  10 6.5 0  10.5 6.5 0  11 6.5 0  11.5 6.5 0  12 6.5 0  12.5 6.5 0  13 6.5 0  13.5 6.5 0  14 6.5 0  14.5 6.5 0  15 6.5 0  15.5 6.5 0  16 6.5 0  16.5 6.5 0  17 6.5 0  17.5 6.5 0  18 6.5 0  18.5 6.5 0  19 6.5 0  19.5 6.5 0  20 6.5 0  0 7 0  0.5 7 0  1 7 0  1.5 7 0  2 7 0  2.5 7 0  3 7 0  3.5 7 0  4 7 0  4.5 7 0  5 7 0  5.5 7 0  6 7 0  6.5 7 0  7 7 0  7.5 7 0  8 7 0  8.5 7 0  9 7 0  9.5 7 0  10 7 0  10.5 7 0  11 7 0  11.5 7 0  12 7 0  12.5 7 0  13 7 0  13.5 7 0  14 7 0  14.5 7 0  15 7 0  15.5 7 0  16 7 0  16.5 7 0  17 7 0  17.5 7 0  18 7 0  18.5 7 0  19 7 0  19.5 7 0  20 7 0  0 7.5 0  0.5 7.5 0  1 7.5 0  1.5 7.5 0  2 7.5 0  2.5 7.5 0  3 7.5 0  3.5 7.5 0  4 7.5 0  4.5 7.5 0  5 7.5 0  5.5 7.5 0  6 7.5 0  6.5 7.5 0  7 7.5 0  7.5 7.5 0  8 7.5 0  8.5 7.5 0  9 7.5 0  9.5 7.5 0  10 7.5 0  10.5 7.5 0  11 7.5 0  11.5 7.5 0  12 7.5 0  12.5 7.5 0  13 7.5 0  13.5 7.5 0  14 7.5 0  14.5 7.5 0  15 7.5 0  15.5 7.5 0  16 7.5 0  16.5 7.5 0  17 7.5 0  17.5 7.5 0  18 7.5 0  18.5 7.5 0  19 7.5 0  19.5 7.5 0  20 7.5 0  0 8 0  0.5 8 0  1 8 0  1.5 8 0  2 8 0  2.5 8 0  3 8 0  3.5 8 0  4 8 0  4.5 8 0  5 8 0  5.5 8 0  6 8 0  6.5 8 0  7 8 0  7.5 8 0  8 8 0  8.5 8 0  9 8 0  9.5 8 0  10 8 0  10.5 8 0  11 8 0  11.5 8 0  12 8 0  12.5 8 0  13 8 0  13.5 8 0  14 8 0  14.5 8 0  15 8 0  15.5 8 0  16 8 0  16.5 8 0  17 8 0  17.5 8 0  18 8 0  18.5 8 0  19 8 0  19.5 8 0  20 8 0  0 8.5 0  0.5 8.5 0  1 8.5 0  1.5 8.5 0  2 8.5 0  2.5 8.5 0  3 8.5 0  3.5 8.5 0  4 8.5 0  4.5 8.5 0  5 8.5 0  5.5 8.5 0  6 8.5 0  6.5 8.5 0  7 8.5 0  7.5 8.5 0  8 8.5 0  8.5 8.5 0  9 8.5 0  9.5 8.5 0  10 8.5 0  10.5 8.5 0  11 8.5 0  11.5 8.5 0  12 8.5 0  12.5 8.5 0  13 8.5 0  13.5 8.5 0  14 8.5 0  14.5 8.5 0  15 8.5 0  15.5 8.5 0  16 8.5 0  16.5 8.5 0  17 8.5 0  17.5 8.5 0  18 8.5 0  18.5 8.5 0  19 8.5 0  19.5 8.5 0  20 8.5 0  0 9 0  0.5 9 0  1 9 0  1.5 9 0  2 9 0  2.5 9 0  3 9 0  3.5 9 0  4 9 0  4.5 9 0  5 9 0  5.5 9 0  6 9 0  6.5 9 0  7 9 0  7.5 9 0  8 9 0  8.5 9 0  9 9 0  9.5 9 0  10 9 0  10.5 9 0  11 9 0  11.5 9 0  12 9 0  12.5 9 0  13 9 0  13.5 9 0  14 9 0  14.5 9 0  15 9 0  15.5 9 0  16 9 0  16.5 9 0  17 9 0  17.5 9 0  18 9 0  18.5 9 0  19 9 0  19.5 9 0  20 9 0  0 9.5 0  0.5 9.5 0  1 9.5 0  1.5 9.5 0  2 9.5 0  2.5 9.5 0  3 9.5 0  3.5 9.5 0  4 9.5 0  4.5 9.5 0  5 9.5 0  5.5 9.5 0  6 9.5 0  6.5 9.5 0  7 9.5 0  7.5 9.5 0  8 9.5 0  8.5 9.5 0  9 9.5 0  9.5 9.5 0  10 9.5 0  10.5 9.5 0  11 9.5 0  11.5 9.5 0  12 9.5 0  12.5 9.5 0  13 9.5 0  13.5 9.5 0  14 9.5 0  14.5 9.5 0  15 9.5 0  15.5 9.5 0  16 9.5 0  16.5 9.5 0  17 9.5 0  17.5 9.5 0  18 9.5 0  18.5 9.5 0  19 9.5 0  19.5 9.5 0  20 9.5 0  0 10 0  0.5 10 0  1 10 0  1.5 10 0  2 10 0  2.5 10 0  3 10 0  3.5 10 0  4 10 0  4.5 10 0  5 10 0  5.5 10 0  6 10 0  6.5 10 0  7 10 0  7.5 10 0  8 10 0  8.5 10 0  9 10 0  9.5 10 0  10 10 0  10.5 10 0  11 10 0  11.5 10 0  12 10 0  12.5 10 0  13 10 0  13.5 10 0  14 10 0  14.5 10 0  15 10 0  15.5 10 0  16 10 0  16.5 10 0  17 10 0  17.5 10 0  18 10 0  18.5 10 0  19 10 0  19.5 10 0  20 10 0  0 10.5 0  0.5 10.5 0  1 10.5 0  1.5 10.5 0  2 10.5 0  2.5 10.5 0  3 10.5 0  3.5 10.5 0  4 10.5 0  4.5 10.5 0  5 10.5 0  5.5 10.5 0  6 10.5 0  6.5 10.5 0  7 10.5 0  7.5 10.5 0  8 10.5 0  8.5 10.5 0  9 10.5 0  9.5 10.5 0  10 10.5 0  10.5 10.5 0  11 10.5 0  11.5 10.5 0  12 10.5 0  12.5 10.5 0  13 10.5 0  13.5 10.5 0  14 10.5 0  14.5 10.5 0  15 10.5 0  15.5 10.5 0  16 10.5 0  16.5 10.5 0  17 10.5 0  17.5 10.5 0  18 10.5 0  18.5 10.5 0  19 10.5 0  19.5 10.5 0  20 10.5 0  0 11 0  0.5 11 0  1 11 0  1.5 11 0  2 11 0  2.5 11 0  3 11 0  3.5 11 0  4 11 0  4.5 11 0  5 11 0  5.5 11 0  6 11 0  6.5 11 0  7 11 0  7.5 11 0  8 11 0  8.5 11 0  9 11 0  9.5 11 0  10 11 0  10.5 11 0  11 11 0  11.5 11 0  12 11 0  12.5 11 0  13 11 0  13.5 11 0  14 11 0  14.5 11 0  15 11 0  15.5 11 0  16 11 0  16.5 11 0  17 11 0  17.5 11 0  18 11 0  18.5 11 0  19 11 0  19.5 11 0  20 11 0  0 11.5 0  0.5 11.5 0  1 11.5 0  1.5 11.5 0  2 11.5 0  2.5 11.5 0  3 11.5 0  3.5 11.5 0  4 11.5 0  4.5 11.5 0  5 11.5 0  5.5 11.5 0  6 11.5 0  6.5 11.5 0  7 11.5 0  7.5 11.5 0  8 11.5 0  8.5 11.5 0  9 11.5 0  9.5 11.5 0  10 11.5 0  10.5 11.5 0  11 11.5 0  11.5 11.5 0  12 11.5 0  12.5 11.5 0  13 11.5 0  13.5 11.5 0  14 11.5 0  14.5 11.5 0  15 11.5 0  15.5 11.5 0  16 11.5 0  16.5 11.5 0  17 11.5 0  17.5 11.5 0  18 11.5 0  18.5 11.5 0  19 11.5 0  19.5 11.5 0  20 11.5 0  0 12 0  0.5 12 0  1 12 0  1.5 12 0  2 12 0  2.5 12 0  3 12 0  3.5 12 0  4 12 0  4.5 12 0  5 12 0  5.5 12 0  6 12 0  6.5 12 0  7 12 0  7.5 12 0  8 12 0  8.5 12 0  9 12 0  9.5 12 0  10 12 0  10.5 12 0  11 12 0  11.5 12 0  12 12 0  12.5 12 0  13 12 0  13.5 12 0  14 12 0  14.5 12 0  
[...]
<PointData  Vectors="f_5623-0"> 
<DataArray  type="Float64"  Name="f_5623-0"  NumberOfComponents="3" format="ascii">0.0000000000000000e+00 0.0000000000000000e+00 0.0000000000000000e+00  -2.9611884793570768e-06 0.0000000000000000e+00 0.0000000000000000e+00  5.7856483421785998e-06 0.0000000000000000e+00 0.0000000000000000e+00  4.2931382346632558e-05 0.0000000000000000e+00 0.0000000000000000e+00  1.2245031278220077e-04 0.0000000000000000e+00 0.0000000000000000e+00  2.5771633016031398e-04 0.0000000000000000e+00 0.0000000000000000e+00  4.6147499692899050e-04 0.0000000000000000e+00 0.0000000000000000e+00  7.4563133655892436e-04 0.0000000000000000e+00 0.0000000000000000e+00  1.1209948207288930e-03 0.0000000000000000e+00 0.0000000000000000e+00  1.5969787344794720e-03 0.0000000000000000e+00 0.0000000000000000e+00  2.1812415853186815e-03 0.0000000000000000e+00 0.0000000000000000e+00  2.8792574412029866e-03 0.0000000000000000e+00 0.0000000000000000e+00  3.6938011566063087e-03 0.0000000000000000e+00 0.0000000000000000e+00  4.6243333500026809e-03 0.0000000000000000e+00 0.0000000000000000e+00  5.6662690786248608e-03 0.0000000000000000e+00 0.0000000000000000e+00  6.8101137092601354e-03 0.0000000000000000e+00 0.0000000000000000e+00  8.0404498236585579e-03 0.0000000000000000e+00 0.0000000000000000e+00  9.3347605133311615e-03 0.0000000000000000e+00 0.0000000000000000e+00  1.0662077590303139e-02 0.0000000000000000e+00 0.0000000000000000e+00  1.1981448637700277e-02 0.0000000000000000e+00 0.0000000000000000e+00  1.3240225087515850e-02 0.0000000000000000e+00 0.0000000000000000e+00  1.4372185306043006e-02 0.0000000000000000e+00 0.0000000000000000e+00  1.5295522586094026e-02 0.0000000000000000e+00 0.0000000000000000e+00  1.5910748368918967e-02 0.0000000000000000e+00 0.0000000000000000e+00  1.6098585899350135e-02 0.0000000000000000e+00 0.0000000000000000e+00  1.5717958095093562e-02 0.0000000000000000e+00 0.0000000000000000e+00  1.4604203898119802e-02 0.0000000000000000e+00 0.0000000000000000e+00  1.2567686659515747e-02 0.0000000000000000e+00 0.0000000000000000e+00  9.3929815949629833e-03 0.0000000000000000e+00 0.0000000000000000e+00  4.8388411026445829e-03 0.0000000000000000e+00 0.0000000000000000e+00  -1.3608698952391866e-03 0.0000000000000000e+00 0.0000000000000000e+00  -9.4951075975081897e-03 0.0000000000000000e+00 0.0000000000000000e+00  -1.9872350548963830e-02 0.0000000000000000e+00 0.0000000000000000e+00  -3.2816054549284532e-02 0.0000000000000000e+00 0.0000000000000000e+00  -4.8658956124951934e-02 0.0000000000000000e+00 0.0000000000000000e+00  -6.7736435528673408e-02 0.0000000000000000e+00 0.0000000000000000e+00  -9.0379251163243662e-02 0.0000000000000000e+00 0.0000000000000000e+00  -1.1690600295733058e-01 0.0000000000000000e+00 0.0000000000000000e+00  -1.4761554855025491e-01 0.0000000000000000e+00 0.0000000000000000e+00  -1.8277870307862595e-01 0.0000000000000000e+00 0.0000000000000000e+00  -2.2262571836622833e-01 0.0000000000000000e+00 0.0000000000000000e+00  0.0000000000000000e+00 -2.9611884791173293e-06 0.0000000000000000e+00  -1.2910358432401535e-05 -1.2910358433103554e-05 0.0000000000000000e+00  -1.1015272083136583e-05 -3.6864644677542440e-05 0.0000000000000000e+00  1.8904017768479197e-05 -7.5028868850655431e-05 0.0000000000000000e+00  9.0965503868719664e-05 -1.2779957681896857e-04 0.0000000000000000e+00  2.1869257470876307e-04 -1.9517970712740272e-04 0.0000000000000000e+00  4.1489153082364683e-04 -2.7695237718246323e-04 0.0000000000000000e+00  6.9149425474608020e-04 -3.7277618129454617e-04 0.0000000000000000e+00  1.0593268568826206e-03 -4.8221650435141625e-04 0.0000000000000000e+00  1.5278173964375550e-03 -6.0475224280477668e-04 0.0000000000000000e+00  2.1046403886440233e-03 -7.3977413333084258e-04 0.0000000000000000e+00  2.7952884396117224e-03 -8.8658016697807426e-04 0.0000000000000000e+00  3.6025580858678012e-03 -1.0443699159437389e-03 0.0000000000000000e+00  4.5259350750760314e-03 -1.2122384658120251e-03 0.0000000000000000e+00  5.5608631649416611e-03 -1.3891703104167937e-03 0.0000000000000000e+00  6.6978799856306425e-03 -1.5740334790357855e-03 0.0000000000000000e+00  7.9216038192305993e-03 -1.7655741605101798e-03 0.0000000000000000e+00  9.2095566544973771e-03 -1.9624121133870929e-03 0.0000000000000000e+00  1.0530812044536824e-02 -2.1630371898345557e-03 0.0000000000000000e+00  1.1844461694887315e-02 -2.3658073471755558e-03 0.0000000000000000e+00  1.3097902978826712e-02 -2.5689485709665012e-03 0.0000000000000000e+00  1.4224961377504879e-02 -2.7705571853630581e-03 0.0000000000000000e+00  1.5143877769066614e-02 -2.9686050749843456e-03 0.0000000000000000e+00  1.5755210921158020e-02 -3.1609483828449270e-03 0.0000000000000000e+00  1.5939730423214213e-02 -3.3453402724575106e-03 0.0000000000000000e+00  1.5556403866358174e-02 -3.5194483388040023e-03 0.0000000000000000e+00  1.4440612549340179e-02 -3.6808772098197271e-03 0.0000000000000000e+00  1.2402759244330749e-02 -3.8271967819562699e-03 0.0000000000000000e+00  9.2274550044463728e-03 -3.9559763653308367e-03 0.0000000000000000e+00  4.6734837054649295e-03 -4.0648247605857227e-03 0.0000000000000000e+00  -1.5252636644049102e-03 -4.1514359415248461e-03 0.0000000000000000e+00  -9.6577241855433701e-03 -4.2136395765211537e-03 0.0000000000000000e+00  -2.0032366578424648e-02 -4.2494551142739949e-03 0.0000000000000000e+00  -3.2972649907143610e-02 -4.2571476559470972e-03 0.0000000000000000e+00  -4.8811333845781055e-02 -4.2352834603265133e-03 0.0000000000000000e+00  -6.7883855881716790e-02 -4.1827827532842313e-03 0.0000000000000000e+00  -9.0521101636024739e-02 -4.0989668073095967e-03 0.0000000000000000e+00  -1.1704198002455854e-01 -3.9835898696976629e-03 0.0000000000000000e+00  -1.4774627782617591e-01 -3.8368101249096620e-03 0.0000000000000000e+00  -1.8290846867527988e-01 -3.6588915867638580e-03 0.0000000000000000e+00  -2.2277470519251921e-01 -3.4489121812279057e-03 0.0000000000000000e+00  0.0000000000000000e+00 5.7856483422083984e-06 0.0000000000000000e+00  -3.6864644677830587e-05 -1.1015272084641527e-05 0.0000000000000000e+00  -5.7883444755534289e-05 -5.7883444755915671e-05 0.0000000000000000e+00  -5.0571648441939799e-05 -1.3433609668241125e-04 0.0000000000000000e+00  -1.1081447011746625e-06 -2.4023901672865286e-04 0.0000000000000000e+00  1.0398021186707583e-04 -3.7531219972900920e-04 0.0000000000000000e+00  2.7752303369336836e-04 -5.3908909379343393e-04 0.0000000000000000e+00  5.3148842883140787e-04 -7.3091364865851820e-04 0.0000000000000000e+00  8.7674106886685124e-04 -9.4994718237727228e-04 0.0000000000000000e+00  1.3227508991752309e-03 -1.1951716301250568e-03 0.0000000000000000e+00  1.8772401666108109e-03 -1.4653869182033393e-03 0.0000000000000000e+00  2.5457571471840419e-03 -1.7592039055091887e-03 0.0000000000000000e+00  3.3311634663048856e-03 -2.0750346163469074e-03 0.0000000000000000e+00  4.2330203610706184e-03 -2.4110810424723362e-03 0.0000000000000000e+00  5.2468580657928886e-03 -2.7653234139948333e-03 0.0000000000000000e+00  6.3633119199770147e-03 -3.1355086360226004e-03 0.0000000000000000e+00  7.5671090668841239e-03 -3.5191395142071895e-03 0.0000000000000000e+00  8.8358910905714395e-03 -3.9134653955996291e-03 0.0000000000000000e+00  1.0138861094432605e-02 -4.3154748997806733e-03 0.0000000000000000e+00  1.1435249116666856e-02 -4.7218914904518620e-03 0.0000000000000000e+00  1.2672598044382912e-02 -5.1291727299335125e-03 0.0000000000000000e+00  1.3784883989704674e-02 -5.5335141606064654e-03 0.0000000000000000e+00  1.4690501021103529e-02 -5.9308588602136935e-03 0.0000000000000000e+00  1.5290160579931935e-02 -6.3169138121460444e-03 0.0000000000000000e+00  1.5464780803118149e-02 -6.6871743022322979e-03 0.0000000000000000e+00  1.5073469557175506e-02 -7.0369575793807256e-03 0.0000000000000000e+00  1.3951735475545438e-02 -7.3614469718493109e-03 0.0000000000000000e+00  1.1910090568556997e-02 -7.6557474985981437e-03 0.0000000000000000e+00  8.7332314498774159e-03 -7.9149537183293619e-03 0.0000000000000000e+00  4.1799979628952266e-03 -8.1342300769715360e-03 0.0000000000000000e+00  -2.0156986685076306e-03 -8.3089033187997222e-03 0.0000000000000000e+00  -1.0142817290275231e-02 -8.4345656078099098e-03 0.0000000000000000e+00  -2.0509896811489670e-02 -8.5071858921365959e-03 0.0000000000000000e+00  -3.3440521842283237e-02 -8.5232257892732064e-03 0.0000000000000000e+00  -4.9267641569493814e-02 -8.4797548842030293e-03 0.0000000000000000e+00  -6.8326960095596537e-02 -8.3745585452915487e-03 0.0000000000000000e+00  -9.0949730333683948e-02 -8.2062281689860711e-03 0.0000000000000000e+00  -1.1745537249686529e-01 -7.9742176064562572e-03 0.0000000000000000e+00  -1.4814438842681707e-01 -7.6788454260284505e-03 0.0000000000000000e+00  -1.8329204835988142e-01 -7.3212800474030826e-03 0.0000000000000000e+00  -2.2314308285088300e-01 -6.9040477328727277e-03 0.0000000000000000e+00  0.0000000000000000e+00 4.2931382348401969e-05 0.0000000000000000e+00  -7.5028868849573072e-05 1.8904017765768370e-05 0.0000000000000000e+00  -1.3433609668402809e-04 -5.0571648443139842e-05 0.0000000000000000e+00  -1.6495250189071933e-04 -1.6495250189174710e-04 0.0000000000000000e+00  -1.5330121447762097e-04 -3.2379683070739957e-04 0.0000000000000000e+00  -8.5981553554660798e-05 -5.2653755515358433e-04 0.0000000000000000e+00  4.9826212651839721e-05 -7.7239338543813011e-04 0.0000000000000000e+00  2.6611253887426855e-04 -1.0603501449344616e-03 0.0000000000000000e+00  5.7378479029740459e-04 -1.3891502719533871e-03 0.0000000000000000e+00  9.8237157995455454e-04 -1.7572818178953542e-03 0.0000000000000000e+00  1.4996690205758020e-03 -2.1629658533303194e-03 0.0000000000000000e+00  2.1313151272285957e-03 -2.6041419972458861e-03 0.0000000000000000e+00  2.8802782274028366e-03 -3.0784522467764263e-03 0.0000000000000000e+00  3.7462442587661974e-03 -3.5832236137089946e-03 0.0000000000000000e+00  4.7248869209605545e-03 -4.1154502449711394e-03 0.0000000000000000e+00  5.8070041700749612e-03 -4.6717757891225281e-03 0.0000000000000000e+00  6.9775048496164994e-03 -5.2484768341671539e-03 0.0000000000000000e+00  8.2142307392756748e-03 -5.8414483158609146e-03 0.0000000000000000e+00  9.4866024547226990e-03 -6.4461918932275765e-03 0.0000000000000000e+00  1.0754083018181612e-02 -7.0578084089470052e-03 0.0000000000000000e+00  1.1964461180577615e-02 -7.6709956956420525e-03 0.0000000000000000e+00  1.3051968374761838e-02 -8.2800531478262728e-03 0.0000000000000000e+00  1.3935259110547923e-02 -8.8788946458501564e-03 0.0000000000000000e+00  1.4515305066497442e-02 -9.4610715783703843e-03 0.0000000000000000e+00  1.4673278040451888e-02 -1.0019807842991928e-02 0.0000000000000000e+00  1.4268525533485038e-02 -1.0548048779569835e-02 0.0000000000000000e+00  1.3136773274132896e-02 -1.1038525964633008e-02 0.0000000000000000e+00  1.1088718332551694e-02 -1.1483839612895818e-02 0.0000000000000000e+00  7.9092000377932493e-03 -1.1876559927603178e-02 0.0000000000000000e+00  3.3571477591318385e-03 -1.2209348047055027e-02 0.0000000000000000e+00  -2.8335019304995259e-03 -1.2475096193027054e-02 0.0000000000000000e+00  -1.0951757340733564e-02 -1.2667085208906690e-02 0.0000000000000000e+00  -2.1306291392479814e-02 -1.2779155902835383e-02 0.0000000000000000e+00  -3.4220915539947973e-02 -1.2805888559827967e-02 0.0000000000000000e+00  -5.0028904890043413e-02 -1.2742782784966013e-02 0.0000000000000000e+00  -6.9066391706630106e-02 -1.2586427721542150e-02 0.0000000000000000e+00  -9.1665156492578698e-02 -1.2334651499906023e-02 0.0000000000000000e+00  -1.1814522954748047e-01 -1.1986642164517433e-02 0.0000000000000000e+00  -1.4880775496426110e-01 -1.1543053212543997e-02 0.0000000000000000e+00  -1.8392856108519706e-01 -1.1006178743507452e-02 0.0000000000000000e+00  -2.2375283060589085e-01 -1.0380443867498734e-02 0.0000000000000000e+00  0.0000000000000000e+00 1.2245031278160446e-04 0.0000000000000000e+00  -1.2779957681764798e-04 9.0965503866488308e-05 0.0000000000000000e+00  -2.4023901672974528e-04 -1.1081447019569330e-06 0.0000000000000000e+00  -3.2379683070925323e-04 -1.5330121447988421e-04 0.0000000000000000e+00  -3.6497448391357339e-04 -3.6497448391414856e-04 0.0000000000000000e+00  -3.5042416569027303e-04 -6.3531292399164781e-04 0.0000000000000000e+00  -2.6733093476199971e-04 -9.6324279400396349e-04 0.0000000000000000e+00  -1.0367807639008664e-04 -1.3474012159350711e-03 0.0000000000000000e+00  1.5149233042052135e-04 -1.7861170810373403e-03 0.0000000000000000e+00  5.0778222936037154e-04 -2.2773925230205007e-03 0.0000000000000000e+00  9.7308407435204691e-04 -2.8188826084265179e-03 0.0000000000000000e+00  1.5531561590233520e-03 -3.4078731259863776e-03 0.0000000000000000e+00  2.2511121942903191e-03 -4.0412568520888405e-03 0.0000000000000000e+00  3.0668097316179565e-03 -4.7155088251685882e-03 0.0000000000000000e+00  3.9961211922336023e-03 -5.4266612914231479e-03 0.0000000000000000e+00  5.0300708300509908e-03 -6.1702791228174722e-03 0.0000000000000000e+00  6.1538212862914058e-03 -6.9414366545203082e-03 0.0000000000000000e+00  7.3454948918769683e-03 -7.7346970429275465e-03 0.0000000000000000e+00  8.5748180269423838e-03 -8.5440954149041352e-03 0.0000000000000000e+00  9.8015822291420730e-03 -9.3631272671242487e-03 0.0000000000000000e+00  1.0973923997615142e-02 -1.0184743785258779e-02 0.0000000000000000e+00  1.2026437033567984e-02 -1.1001355982864879e-02 0.0000000000000000e+00  1.2878146589865741e-02 -1.1804849803040880e-02 0.0000000000000000e+00  1.3430396054983975e-02 -1.2586614565501655e-02 0.0000000000000000e+00  1.3564720826815995e-02 -1.3337587352216735e-02 0.0000000000000000e+00  1.3140813188208813e-02 -1.4048316064768756e-02 0.0000000000000000e+00  1.1994712500522241e-02 -1.4709043897612462e-02 0.0000000000000000e+00  9.9373844830512245e-03 -1.5309817776632087e-02 0.0000000000000000e+00  6.7538770597645901e-03 -1.5840622818002147e-02 0.0000000000000000e+00  2.2032522925712734e-03 -1.6291543969382923e-02 0.0000000000000000e+00  -3.9805124036237536e-03 -1.6652954615814765e-02 0.0000000000000000e+00  -1.2086491493246814e-02 -1.6915730019934631e-02 0.0000000000000000e+00  -2.2423544279876841e-02 -1.7071481051938040e-02 0.0000000000000000e+00  -3.5315798836482677e-02 -1.7112800905061471e-02 0.0000000000000000e+00  -5.1096982369876295e-02 -1.7033514737395724e-02 0.0000000000000000e+00  -7.0103813332217019e-02 -1.6828920132572919e-02 0.0000000000000000e+00  -9.2668782417406309e-02 -1.6496006353098586e-02 0.0000000000000000e+00  -1.1911273492717814e-01 -1.6033645206446935e-02 0.0000000000000000e+00  -1.4973771460996280e-01 -1.5442758651564975e-02 0.0000000000000000e+00  -1.8482054706875897e-01 -1.4726479842476827e-02 0.0000000000000000e+00  -2.2460767129863732e-01 -1.3890268587181707e-02 0.0000000000000000e+00  0.0000000000000000e+00 2.5771633016014961e-04 0.0000000000000000e+00  -1.9517970712904227e-04 2.1869257470763780e-04 0.0000000000000000e+00  -3.7531219973101530e-04 1.0398021186704931e-04 0.0000000000000000e+00  -5.2653755515557059e-04 -8.5981553557270919e-05 0.0000000000000000e+00  -6.3531292399210751e-04 -3.5042416569221288e-04 0.0000000000000000e+00  -6.8831703212360426e-04 -6.8831703212342266e-04 0.0000000000000000e+00  -6.7273231379578352e-04 -1.0983179011212465e-03 0.0000000000000000e+00  -5.7650903453906064e-04 -1.5787371619317521e-03 0.0000000000000000e+00  -3.8862840877654269e-04 -2.1275117578983759e-03 0.0000000000000000e+00  -9.9399844597159031e-05 -2.7421799992994214e-03 0.0000000000000000e+00  2.9918691623753306e-04 -3.4198545333603207e-03 0.0000000000000000e+00  8.1303897820107947e-04 -4.1571930601538073e-03 0.0000000000000000e+00  1.4454517288973730e-03 -4.9503671531227903e-03 0.0000000000000000e+00  2.1964988927908203e-03 -5.7950298326219091e-03 0.0000000000000000e+00  3.0623047997312149e-03 -6.6862827039711808e-03 0.0000000000000000e+00  4.0341820514384497e-03 -7.6186436204554635e-03 0.0000000000000000e+00  5.0976180981274020e-03 -8.5860159993425573e-03 0.0000000000000000e+00  6.2310957278823914e-03 -9.5816611119691076e-03 0.0000000000000000e+00  7.4047356140707959e-03 -1.0598174890740915e-02 0.0000000000000000e+00  8.5787544363110004e-03 -1.1627471047204874e-02 0.0000000000000000e+00  9.7017403336490150e-03 -1.2660772577598177e-02 0.0000000000000000e+00  1.0708759233410992e-02 -1.3688614042667102e-02 0.0000000000000000e+00  1.1519321527929775e-02 -1.4700857339129562e-02 0.0000000000000000e+00  1.2035259033204199e-02 -1.5686724012647507e-02 0.0000000000000000e+00  1.2138587122497886e-02 -1.6634847465003447e-02 0.0000000000000000e+00  1.1689455641878324e-02 -1.7533348630210940e-02 0.0000000000000000e+00  1.0524322917254159e-02 -1.8369938761544451e-02 0.0000000000000000e+00  8.4545167643982691e-03 -1.9132052784436970e-02 0.0000000000000000e+00  5.2653703364475418e-03 -1.9807016107478936e-02 0.0000000000000000e+00  7.1613295114529346e-04 -2.0382246712630812e-02 0.0000000000000000e+00  -5.4591499699255582e-03 -2.0845492648025675e-02 0.0000000000000000e+00  -1.3549624315175304e-02 -2.1185102655918803e-02 0.0000000000000000e+00  -2.3864377776262855e-02 -2.1390324626502619e-02 0.0000000000000000e+00  -3.6727936918198964e-02 -2.1451623092161413e-02 0.0000000000000000e+00  -5.2474604536506243e-02 -2.1361003527781544e-02 0.0000000000000000e+00  -7.1441851224909189e-02 -2.1112328551561876e-02 0.0000000000000000e+00  -9.3963088104085143e-02 -2.0701610149096553e-02 0.0000000000000000e+00  -1.2036023575298946e-01 -2.0127263095923033e-02 0.0000000000000000e+00  -1.5093655538745965e-01 -1.9390304791502232e-02 0.0000000000000000e+00  -1.8597022041208408e-01 -1.8494472546637605e-02 0.0000000000000000e+00  -2.2570908481171639e-01 -1.7446168436511766e-02 0.0000000000000000e+00  0.0000000000000000e+00 4.6147499692595788e-04 0.0000000000000000e+00  -2.7695237718174456e-04 4.1489153082424873e-04 0.0000000000000000e+00  -5.3908909378981866e-04 2.7752303369326406e-04 0.0000000000000000e+00  -7.7239338543472582e-04 4.9826212649329122e-05 0.0000000000000000e+00  -9.6324279400140781e-04 -2.6733093476399752e-04 0.0000000000000000e+00  -1.0983179011160070e-03 -6.7273231379852557e-04 0.0000000000000000e+00  -1.1647920732997293e-03 -1.1647920733056391e-03 0.0000000000000000e+00  -1.1505779439760014e-03 -1.7415194185764721e-03 0.0000000000000000e+00  -1.0445879484319695e-03 -2.4004870521993817e-03 0.0000000000000000e+00  -8.3702983034650736e-04 -3.1387995811844793e-03 0.0000000000000000e+00  -5.1975640570123933e-04 -3.9530597325142924e-03 0.0000000000000000e+00  -8.6685714576747221e-05 -4.8393318955529778e-03 0.0000000000000000e+00  4.6569301302401160e-04 -5.7931033087399849e-03 0.0000000000000000e+00  1.1377116895561353e-03 -6.8092435834579690e-03 0.0000000000000000e+00  1.9257974156118550e-03 -7.8819634864155299e-03 0.0000000000000000e+00  2.8216112596693246e-03 -9.0047740965215860e-03 0.0000000000000000e+00  3.8110351181615053e-03 -1.0170447657115214e-02 0.0000000000000000e+00  4.8729914779164132e-03 -1.1370981677700330e-02 0.0000000000000000e+00  5.9780840257688452e-03 -1.2597568109641192e-02 0.0000000000000000e+00  7.0870523987981134e-03 -1.3840569731682052e-02 0.0000000000000000e+00  8.1490425908209395e-03 -1.5089506235841620e-02 0.0000000000000000e+00  9.0997062987024178e-03 -1.6333052899669142e-02 0.0000000000000000e+00  9.8591584120058633e-03 -1.7559055157893563e-02 0.0000000000000000e+00  1.0329842318456245e-02 -1.8754562824106882e-02 0.0000000000000000e+00  1.0394377688346284e-02 -1.9905888124631690e-02 0.0000000000000000e+00  9.9134941844781187e-03 -2.0998692030069571e-02 0.0000000000000000e+00  8.7241853685663812e-03 -2.2018103516659660e-02 0.0000000000000000e+00  6.6382468658301762e-03 -2.2948876236914256e-02 0.0000000000000000e+00  3.4413870400433612e-03 -2.3775586476329283e-02 0.0000000000000000e+00  -1.1068889157236394e-03 -2.4482875053589745e-02 0.0000000000000000e+00  -7.2724261731752591e-03 -2.5055733830752869e-02 0.0000000000000000e+00  -1.5344433630936658e-02 -2.5479834643659258e-02 0.0000000000000000e+00  -2.5632257244470637e-02 -2.5741894770617647e-02 0.0000000000000000e+00  -3.8460894727598963