<?xml version="1.0"?>
<VTKFile type="UnstructuredGrid"  version="0.1"  >
<UnstructuredGrid>
<Piece  NumberOfPoints="1681" NumberOfCells="3200">
<Points>
<DataArray  type="Float64"  NumberOfComponents="3"  format="ascii">0 0 0  0.5 0 0  1 0 0  1.5 0 0  2 0 0  2.5 0 0  3 0 0  3.5 0 0  4 0 0  4.5 0 0  5 0 0  5.5 0 0  6 0 0  6.5 0 0  7 0 0  7.5 0 0  8 0 0  8.5 0 0  9 0 0  9.5 0 0  10 0 0  10.5 0 0  11 0 0  11.5 0 0  12 0 0  12.5 0 0  13 0 0  13.5 0 0  14 0 0  14.5 0 0  15 0 0  15.5 0 0  16 0 0  16.5 0 0  17 0 0  17.5 0 0  18 0 0  18.5 0 0  19 0 0  19.5 0 0  20 0 0  0 0.5 0  0.5 0.5 0  1 0.5 0  1.5 0.5 0  2 0.5 0  2.5 0.5 0  3 0.5 0  3.5 0.5 0  4 0.5 0  4.5 0.5 0  5 0.5 0  5.5 0.5 0  6 0.5 0  6.5 0.5 0  7 0.5 0  7.5 0.5 0  8 0.5 0  8.5 0.5 0  9 0.5 0  9.5 0.5 0  10 0.5 0  10.5 0.5 0  11 0.5 0  11.5 0.5 0  12 0.5 0  12.5 0.5 0  13 0.5 0  13.5 0.5 0  14 0.5 0  14.5 0.5 0  15 0.5 0  15.5 0.5 0  16 0.5 0  16.5 0.5 0  17 0.5 0  17.5 0.5 0  18 0.5 0  18.5 0.5 0  19 0.5 0  19.5 0.5 0  20 0.5 0  0 1 0  0.5 1 0  1 1 0  1.5 1 0  2 1 0  2.5 1 0  3 1 0  3.5 1 0  4 1 0  4.5 1 0  5 1 0  5.5 1 0  6 1 0  6.5 1 0  7 1 0  7.5 1 0  8 1 0  8.5 1 0  9 1 0  9.5 1 0  10 1 0  10.5 1 0  11 1 0  11.5 1 0  12 1 0  12.5 1 0  13 1 0  13.5 1 0  14 1 0  14.5 1 0  15 1 0  15.5 1 0  16 1 0  16.5 1 0  17 1 0  17.5 1 0  18 1 0  18.5 1 0  19 1 0  19.5 1 0  20 1 0  0 1.5 0  0.5 1.5 0  1 1.5 0  1.5 1.5 0  2 1.5 0  2.5 1.5 0  3 1.5 0  3.5 1.5 0  4 1.5 0  4.5 1.5 0  5 1.5 0  5.5 1.5 0  6 1.5 0  6.5 1.5 0  7 1.5 0  7.5 1.5 0  8 1.5 0  8.5 1.5 0  9 1.5 0  9.5 1.5 0  10 1.5 0  10.5 1.5 0  11 1.5 0  11.5 1.5 0  12 1.5 0  12.5 1.5 0  13 1.5 0  13.5 1.5 0  14 1.5 0  14.5 1.5 0  15 1.5 0  15.5 1.5 0  16 1.5 0  16.5 1.5 0  17 1.5 0  17.5 1.5 0  18 1.5 0  18.5 1.5 0  19 1.5 0  19.5 1.5 0  20 1.5 0  0 2 0  0.5 2 0  1 2 0  1.5 2 0  2 2 0  2.5 2 0  3 2 0  3.5 2 0  4 2 0  4.5 2 0  5 2 0  5.5 2 0  6 2 0  6.5 2 0  7 2 0  7.5 2 0  8 2 0  8.5 2 0  9 2 0  9.5 2 0  10 2 0  10.5 2 0  11 2 0  11.5 2 0  12 2 0  12.5 2 0  13 2 0  13.5 2 0  14 2 0  14.5 2 0  15 2 0  15.5 2 0  16 2 0  16.5 2 0  17 2 0  17.5 2 0  18 2 0  18.5 2 0  19 2 0  19.5 2 0  20 2 0  0 2.5 0  0.5 2.5 0  1 2.5 0  1.5 2.5 0  2 2.5 0  2.5 2.5 0  3 2.5 0  3.5 2.5 0  4 2.5 0  4.5 2.5 0  5 2.5 0  5.5 2.5 0  6 2.5 0  6.5 2.5 0  7 2.5 0  7.5 2.5 0  8 2.5 0  8.5 2.5 0  9 2.5 0  9.5 2.5 0  10 2.5 0  10.5 2.5 0  11 2.5 0  11.5 2.5 0  12 2.5 0  12.5 2.5 0  13 2.5 0  13.5 2.5 0  14 2.5 0  14.5 2.5 0  15 2.5 0  15.5 2.5 0  16 2.5 0  16.5 2.5 0  17 2.5 0  17.5 2.5 0  18 2.5 0  18.5 2.5 0  19 2.5 0  19.5 2.5 0  20 2.5 0  0 3 0  0.5 3 0  1 3 0  1.5 3 0  2 3 0  2.5 3 0  3 3 0  3.5 3 0  4 3 0  4.5 3 0  5 3 0  5.5 3 0  6 3 0  6.5 3 0  7 3 0  7.5 3 0  8 3 0  8.5 3 0  9 3 0  9.5 3 0  10 3 0  10.5 3 0  11 3 0  11.5 3 0  12 3 0  12.5 3 0  13 3 0  13.5 3 0  14 3 0  14.5 3 0  15 3 0  15.5 3 0  16 3 0  16.5 3 0  17 3 0  17.5 3 0  18 3 0  18.5 3 0  19 3 0  19.5 3 0  20 3 0  0 3.5 0  0.5 3.5 0  1 3.5 0  1.5 3.5 0  2 3.5 0  2.5 3.5 0  3 3.5 0  3.5 3.5 0  4 3.5 0  4.5 3.5 0  5 3.5 0  5.5 3.5 0  6 3.5 0  6.5 3.5 0  7 3.5 0  7.5 3.5 0  8 3.5 0  8.5 3.5 0  9 3.5 0  9.5 3.5 0  10 3.5 0  10.5 3.5 0  11 3.5 0  11.5 3.5 0  12 3.5 0  12.5 3.5 0  13 3.5 0  13.5 3.5 0  14 3.5 0  14.5 3.5 0  15 3.5 0  15.5 3.5 0  16 3.5 0  16.5 3.5 0  17 3.5 0  17.5 3.5 0  18 3.5 0  18.5 3.5 0  19 3.5 0  19.5 3.5 0  20 3.5 0  0 4 0  0.5 4 0  1 4 0  1.5 4 0  2 4 0  2.5 4 0  3 4 0  3.5 4 0  4 4 0  4.5 4 0  5 4 0  5.5 4 0  6 4 0  6.5 4 0  7 4 0  7.5 4 0  8 4 0  8.5 4 0  9 4 0  9.5 4 0  10 4 0  10.5 4 0  11 4 0  11.5 4 0  12 4 0  12.5 4 0  13 4 0  13.5 4 0  14 4 0  14.5 4 0  15 4 0  15.5 4 0  16 4 0  16.5 4 0  17 4 0  17.5 4 0  18 4 0  18.5 4 0  19 4 0  19.5 4 0  20 4 0  0 4.5 0  0.5 4.5 0  1 4.5 0  1.5 4.5 0  2 4.5 0  2.5 4.5 0  3 4.5 0  3.5 4.5 0  4 4.5 0  4.5 4.5 0  5 4.5 0  5.5 4.5 0  6 4.5 0  6.5 4.5 0  7 4.5 0  7.5 4.5 0  8 4.5 0  8.5 4.5 0  9 4.5 0  9.5 4.5 0  10 4.5 0  10.5 4.5 0  11 4.5 0  11.5 4.5 0  12 4.5 0  12.5 4.5 0  13 4.5 0  13.5 4.5 0  14 4.5 0  14.5 4.5 0  15 4.5 0  15.5 4.5 0  16 4.5 0  16.5 4.5 0  17 4.5 0  17.5 4.5 0  18 4.5 0  18.5 4.5 0  19 4.5 0  19.5 4.5 0  20 4.5 0  0 5 0  0.5 5 0  1 5 0  1.5 5 0  2 5 0  2.5 5 0  3 5 0  3.5 5 0  4 5 0  4.5 5 0  5 5 0  5.5 5 0  6 5 0  6.5 5 0  7 5 0  7.5 5 0  8 5 0  8.5 5 0  9 5 0  9.5 5 0  10 5 0  10.5 5 0  11 5 0  11.5 5 0  12 5 0  12.5 5 0  13 5 0  13.5 5 0  14 5 0  14.5 5 0  15 5 0  15.5 5 0  16 5 0  16.5 5 0  17 5 0  17.5 5 0  18 5 0  18.5 5 0  19 5 0  19.5 5 0  20 5 0  0 5.5 0  0.5 5.5 0  1 5.5 0  1.5 5.5 0  2 5.5 0  2.5 5.5 0  3 5.5 0  3.5 5.5 0  4 5.5 0  4.5 5.5 0  5 5.5 0  5.5 5.5 0  6 5.5 0  6.5 5.5 0  7 5.5 0  7.5 5.5 0  8 5.5 0  8.5 5.5 0  9 5.5 0  9.5 5.5 0  10 5.5 0  10.5 5.5 0  11 5.5 0  11.5 5.5 0  12 5.5 0  12.5 5.5 0  13 5.5 0  13.5 5.5 0  14 5.5 0  14.5 5.5 0  15 5.5 0  15.5 5.5 0  16 5.5 0  16.5 5.5 0  17 5.5 0  17.5 5.5 0  18 5.5 0  18.5 5.5 0  19 5.5 0  19.5 5.5 0  20 5.5 0  0 6 0  0.5 6 0  1 6 0  1.5 6 0  2 6 0  2.5 6 0  3 6 0  3.5 6 0  4 6 0  4.5 6 0  5 6 0  5.5 6 0  6 6 0  6.5 6 0  7 6 0  7.5 6 0  8 6 0  8.5 6 0  9 6 0  9.5 6 0  10 6 0  10.5 6 0  11 6 0  11.5 6 0  12 6 0  12.5 6 0  13 6 0  13.5 6 0  14 6 0  14.5 6 0  15 6 0  15.5 6 0  16 6 0  16.5 6 0  17 6 0  17.5 6 0  18 6 0  18.5 6 0  19 6 0  19.5 6 0  20 6 0  0 6.5 0  0.5 6.5 0  1 6.5 0  1.5 6.5 0  2 6.5 0  2.5 6.5 0  3 6.5 0  3.5 6.5 0  4 6.5 0  4.5 6.5 0  5 6.5 0  5.5 6.5 0  6 6.5 0  6.5 6.5 0  7 6.5 0  7.5 6.5 0  8 6.5 0  8.5 6.5 0  9 6.5 0  9.5 6.5 0  10 6.5 0  10.5 6.5 0  11 6.5 0  11.5 6.5 0  12 6.5 0  12.5 6.5 0  13 6.5 0  13.5 6.5 0  14 6.5 0  14.5 6.5 0  15 6.5 0  15.5 6.5 0  16 6.5 0  16.5 6.5 0  17 6.5 0  17.5 6.5 0  18 6.5 0  18.5 6.5 0  19 6.5 0  19.5 6.5 0  20 6.5 0  0 7 0  0.5 7 0  1 7 0  1.5 7 0  2 7 0  2.5 7 0  3 7 0  3.5 7 0  4 7 0  4.5 7 0  5 7 0  5.5 7 0  6 7 0  6.5 7 0  7 7 0  7.5 7 0  8 7 0  8.5 7 0  9 7 0  9.5 7 0  10 7 0  10.5 7 0  11 7 0  11.5 7 0  12 7 0  12.5 7 0  13 7 0  13.5 7 0  14 7 0  14.5 7 0  15 7 0  15.5 7 0  16 7 0  16.5 7 0  17 7 0  17.5 7 0  18 7 0  18.5 7 0  19 7 0  19.5 7 0  20 7 0  0 7.5 0  0.5 7.5 0  1 7.5 0  1.5 7.5 0  2 7.5 0  2.5 7.5 0  3 7.5 0  3.5 7.5 0  4 7.5 0  4.5 7.5 0  5 7.5 0  5.5 7.5 0  6 7.5 0  6.5 7.5 0  7 7.5 0  7.5 7.5 0  8 7.5 0  8.5 7.5 0  9 7.5 0  9.5 7.5 0  10 7.5 0  10.5 7.5 0  11 7.5 0  11.5 7.5 0  12 7.5 0  12.5 7.5 0  13 7.5 0  13.5 7.5 0  14 7.5 0  14.5 7.5 0  15 7.5 0  15.5 7.5 0  16 7.5 0  16.5 7.5 0  17 7.5 0  17.5 7.5 0  18 7.5 0  18.5 7.5 0  19 7.5 0  19.5 7.5 0  20 7.5 0  0 8 0  0.5 8 0  1 8 0  1.5 8 0  2 8 0  2.5 8 0  3 8 0  3.5 8 0  4 8 0  4.5 8 0  5 8 0  5.5 8 0  6 8 0  6.5 8 0  7 8 0  7.5 8 0  8 8 0  8.5 8 0  9 8 0  9.5 8 0  10 8 0  10.5 8 0  11 8 0  11.5 8 0  12 8 0  12.5 8 0  13 8 0  13.5 8 0  14 8 0  14.5 8 0  15 8 0  15.5 8 0  16 8 0  16.5 8 0  17 8 0  17.5 8 0  18 8 0  18.5 8 0  19 8 0  19.5 8 0  20 8 0  0 8.5 0  0.5 8.5 0  1 8.5 0  1.5 8.5 0  2 8.5 0  2.5 8.5 0  3 8.5 0  3.5 8.5 0  4 8.5 0  4.5 8.5 0  5 8.5 0  5.5 8.5 0  6 8.5 0  6.5 8.5 0  7 8.5 0  7.5 8.5 0  8 8.5 0  8.5 8.5 0  9 8.5 0  9.5 8.5 0  10 8.5 0  10.5 8.5 0  11 8.5 0  11.5 8.5 0  12 8.5 0  12.5 8.5 0  13 8.5 0  13.5 8.5 0  14 8.5 0  14.5 8.5 0  15 8.5 0  15.5 8.5 0  16 8.5 0  16.5 8.5 0  17 8.5 0  17.5 8.5 0  18 8.5 0  18.5 8.5 0  19 8.5 0  19.5 8.5 0  20 8.5 0  0 9 0  0.5 9 0  1 9 0  1.5 9 0  2 9 0  2.5 9 0  3 9 0  3.5 9 0  4 9 0  4.5 9 0  5 9 0  5.5 9 0  6 9 0  6.5 9 0  7 9 0  7.5 9 0  8 9 0  8.5 9 0  9 9 0  9.5 9 0  10 9 0  10.5 9 0  11 9 0  11.5 9 0  12 9 0  12.5 9 0  13 9 0  13.5 9 0  14 9 0  14.5 9 0  15 9 0  15.5 9 0  16 9 0  16.5 9 0  17 9 0  17.5 9 0  18 9 0  18.5 9 0  19 9 0  19.5 9 0  20 9 0  0 9.5 0  0.5 9.5 0  1 9.5 0  1.5 9.5 0  2 9.5 0  2.5 9.5 0  3 9.5 0  3.5 9.5 0  4 9.5 0  4.5 9.5 0  5 9.5 0  5.5 9.5 0  6 9.5 0  6.5 9.5 0  7 9.5 0  7.5 9.5 0  8 9.5 0  8.5 9.5 0  9 9.5 0  9.5 9.5 0  10 9.5 0  10.5 9.5 0  11 9.5 0  11.5 9.5 0  12 9.5 0  12.5 9.5 0  13 9.5 0  13.5 9.5 0  14 9.5 0  14.5 9.5 0  15 9.5 0  15.5 9.5 0  16 9.5 0  16.5 9.5 0  17 9.5 0  17.5 9.5 0  18 9.5 0  18.5 9.5 0  19 9.5 0  19.5 9.5 0  20 9.5 0  0 10 0  0.5 10 0  1 10 0  1.5 10 0  2 10 0  2.5 10 0  3 10 0  3.5 10 0  4 10 0  4.5 10 0  5 10 0  5.5 10 0  6 10 0  6.5 10 0  7 10 0  7.5 10 0  8 10 0  8.5 10 0  9 10 0  9.5 10 0  10 10 0  10.5 10 0  11 10 0  11.5 10 0  12 10 0  12.5 10 0  13 10 0  13.5 10 0  14 10 0  14.5 10 0  15 10 0  15.5 10 0  16 10 0  16.5 10 0  17 10 0  17.5 10 0  18 10 0  18.5 10 0  19 10 0  19.5 10 0  20 10 0  0 10.5 0  0.5 10.5 0  1 10.5 0  1.5 10.5 0  2 10.5 0  2.5 10.5 0  3 10.5 0  3.5 10.5 0  4 10.5 0  4.5 10.5 0  5 10.5 0  5.5 10.5 0  6 10.5 0  6.5 10.5 0  7 10.5 0  7.5 10.5 0  8 10.5 0  8.5 10.5 0  9 10.5 0  9.5 10.5 0  10 10.5 0  10.5 10.5 0  11 10.5 0  11.5 10.5 0  12 10.5 0  12.5 10.5 0  13 10.5 0  13.5 10.5 0  14 10.5 0  14.5 10.5 0  15 10.5 0  15.5 10.5 0  16 10.5 0  16.5 10.5 0  17 10.5 0  17.5 10.5 0  18 10.5 0  18.5 10.5 0  19 10.5 0  19.5 10.5 0  20 10.5 0  0 11 0  0.5 11 0  1 11 0  1.5 11 0  2 11 0  2.5 11 0  3 11 0  3.5 11 0  4 11 0  4.5 11 0  5 11 0  5.5 11 0  6 11 0  6.5 11 0  7 11 0  7.5 11 0  8 11 0  8.5 11 0  9 11 0  9.5 11 0  10 11 0  10.5 11 0  11 11 0  11.5 11 0  12 11 0  12.5 11 0  13 11 0  13.5 11 0  14 11 0  14.5 11 0  15 11 0  15.5 11 0  16 11 0  16.5 11 0  17 11 0  17.5 11 0  18 11 0  18.5 11 0  19 11 0  19.5 11 0  20 11 0  0 11.5 0  0.5 11.5 0  1 11.5 0  1.5 11.5 0  2 11.5 0  2.5 11.5 0  3 11.5 0  3.5 11.5 0  4 11.5 0  4.5 11.5 0  5 11.5 0  5.5 11.5 0  6 11.5 0  6.5 11.5 0  7 11.5 0  7.5 11.5 0  8 11.5 0  8.5 11.5 0  9 11.5 0  9.5 11.5 0  10 11.5 0  10.5 11.5 0  11 11.5 0  11.5 11.5 0  12 11.5 0  12.5 11.5 0  13 11.5 0  13.5 11.5 0  14 11.5 0  14.5 11.5 0  15 11.5 0  15.5 11.5 0  16 11.5 0  16.5 11.5 0  17 11.5 0  17.5 11.5 0  18 11.5 0  18.5 11.5 0  19 11.5 0  19.5 11.5 0  20 11.5 0  0 12 0  0.5 12 0  1 12 0  1.5 12 0  2 12 0  2.5 12 0  3 12 0  3.5 12 0  4 12 0  4.5 12 0  5 12 0  5.5 12 0  6 12 0  6.5 12 0  7 12 0  7.5 12 0  8 12 0  8.5 12 0  9 12 0  9.5 12 0  10 12 0  10.5 12 0  11 12 0  11.5 12 0  12 12 0  12.5 12 0  13 12 0  13.5 12 0  14 12 0  14.5 12 0  
[...]
<PointData  Vectors="f_5623-0"> 
<DataArray  type="Float64"  Name="f_5623-0"  NumberOfComponents="3" format="ascii">0.0000000000000000e+00 0.0000000000000000e+00 0.0000000000000000e+00  7.4218675515615083e-07 0.0000000000000000e+00 0.0000000000000000e+00  3.7133733689083448e-06 0.0000000000000000e+00 0.0000000000000000e+00  1.1798176283994544e-05 0.0000000000000000e+00 0.0000000000000000e+00  2.7528519725586879e-05 0.0000000000000000e+00 0.0000000000000000e+00  5.3389053721830851e-05 0.0000000000000000e+00 0.0000000000000000e+00  9.1823384277174458e-05 0.0000000000000000e+00 0.0000000000000000e+00  1.4522027365372403e-04 0.0000000000000000e+00 0.0000000000000000e+00  2.1589908297951996e-04 0.0000000000000000e+00 0.0000000000000000e+00  3.0609471965190792e-04 0.0000000000000000e+00 0.0000000000000000e+00  4.1794154519426974e-04 0.0000000000000000e+00 0.0000000000000000e+00  5.5345583083036708e-04 0.0000000000000000e+00 0.0000000000000000e+00  7.1451634546348475e-04 0.0000000000000000e+00 0.0000000000000000e+00  9.0284252657737540e-04 0.0000000000000000e+00 0.0000000000000000e+00  1.1199694100727093e-03 0.0000000000000000e+00 0.0000000000000000e+00  1.3672180197888185e-03 0.0000000000000000e+00 0.0000000000000000e+00  1.6456591334976828e-03 0.0000000000000000e+00 0.0000000000000000e+00  1.9560670840021790e-03 0.0000000000000000e+00 0.0000000000000000e+00  2.2988582796125332e-03 0.0000000000000000e+00 0.0000000000000000e+00  2.6740060946366150e-03 0.0000000000000000e+00 0.0000000000000000e+00  3.0809192185410708e-03 0.0000000000000000e+00 0.0000000000000000e+00  3.5182638451635257e-03 0.0000000000000000e+00 0.0000000000000000e+00  3.9837004663137894e-03 0.0000000000000000e+00 0.0000000000000000e+00  4.4734926302900067e-03 0.0000000000000000e+00 0.0000000000000000e+00  4.9819269577707900e-03 0.0000000000000000e+00 0.0000000000000000e+00  5.5004603273666299e-03 0.0000000000000000e+00 0.0000000000000000e+00  6.0164814474998867e-03 0.0000000000000000e+00 0.0000000000000000e+00  6.5115413278029081e-03 0.0000000000000000e+00 0.0000000000000000e+00  6.9588740491577589e-03 0.0000000000000000e+00 0.0000000000000000e+00  7.3200028865513063e-03 0.0000000000000000e+00 0.0000000000000000e+00  7.5402194957453388e-03 0.0000000000000000e+00 0.0000000000000000e+00  7.5427540500582991e-03 0.0000000000000000e+00 0.0000000000000000e+00  7.2215467716908732e-03 0.0000000000000000e+00 0.0000000000000000e+00  6.4327147155908652e-03 0.0000000000000000e+00 0.0000000000000000e+00  4.9851060713437725e-03 0.0000000000000000e+00 0.0000000000000000e+00  2.6307519385063405e-03 0.0000000000000000e+00 0.0000000000000000e+00  -9.4347608762506807e-04 0.0000000000000000e+00 0.0000000000000000e+00  -6.1212190775563136e-03 0.0000000000000000e+00 0.0000000000000000e+00  -1.3356920838359510e-02 0.0000000000000000e+00 0.0000000000000000e+00  -2.3168935425099967e-02 0.0000000000000000e+00 0.0000000000000000e+00  -3.6122645336230337e-02 0.0000000000000000e+00 0.0000000000000000e+00  0.0000000000000000e+00 7.4218675261278278e-07 0.0000000000000000e+00  -8.6752559175221728e-07 -8.6752559165397469e-07 0.0000000000000000e+00  9.2490454368880136e-07 -4.8533539019309192e-06 0.0000000000000000e+00  7.7758980925446555e-06 -1.1258416896987640e-05 0.0000000000000000e+00  2.2242376895655684e-05 -2.0136235142220319e-05 0.0000000000000000e+00  4.6830314449251655e-05 -3.1478448439718335e-05 0.0000000000000000e+00  8.3991409005329607e-05 -4.5243121153320537e-05 0.0000000000000000e+00  1.3611796140491469e-04 -6.1368646196068713e-05 0.0000000000000000e+00  2.0553179724656386e-04 -7.9777822758756204e-05 0.0000000000000000e+00  2.9447038379737568e-04 -1.0037833901501656e-04 0.0000000000000000e+00  4.0507114919482952e-04 -1.2306207764307931e-04 0.0000000000000000e+00  5.3935410148459549e-04 -1.4770403472316661e-04 0.0000000000000000e+00  6.9920249041133546e-04 -1.7416111313496484e-04 0.0000000000000000e+00  8.8634101202204093e-04 -2.0227089482191462e-04 0.0000000000000000e+00  1.1023107469304875e-03 -2.3185045393550542e-04 0.0000000000000000e+00  1.3484395362474411e-03 -2.6269526446958958e-04 0.0000000000000000e+00  1.6258057104671510e-03 -2.9457825804993010e-04 0.0000000000000000e+00  1.9351918261578211e-03 -3.2724909286152494e-04 0.0000000000000000e+00  2.2770230891270868e-03 -3.6043370193332679e-04 0.0000000000000000e+00  2.6512821070444072e-03 -3.9383419734352674e-04 0.0000000000000000e+00  3.0573870496728617e-03 -4.2712921773251485e-04 0.0000000000000000e+00  3.4940135837848779e-03 -4.5997481997896405e-04 0.0000000000000000e+00  3.9588313281561259e-03 -4.9200603447885588e-04 0.0000000000000000e+00  4.4481121653837004e-03 -5.2283922711008138e-04 0.0000000000000000e+00  4.9561496761179385e-03 -5.5207544086849358e-04 0.0000000000000000e+00  5.4744055833863582e-03 -5.7930492350074679e-04 0.0000000000000000e+00  5.9902704136016649e-03 -6.0411307913458634e-04 0.0000000000000000e+00  6.4852929141062440e-03 -6.2608809894936304e-04 0.0000000000000000e+00  6.9326997273442695e-03 -6.4483050860462249e-04 0.0000000000000000e+00  7.2940006048718125e-03 -6.5996478515759245e-04 0.0000000000000000e+00  7.5144672962626485e-03 -6.7115299935640736e-04 0.0000000000000000e+00  7.5173046747291960e-03 -6.7811007076711547e-04 0.0000000000000000e+00  7.1964254631517620e-03 -6.8061961281153419e-04 0.0000000000000000e+00  6.4079234010526297e-03 -6.7854841923396109e-04 0.0000000000000000e+00  4.9606376336096096e-03 -6.7185633381471575e-04 0.0000000000000000e+00  2.6066171557645990e-03 -6.6059646191916378e-04 0.0000000000000000e+00  -9.6721170450880464e-04 -6.4489805319703096e-04 0.0000000000000000e+00  -6.1444088465337906e-03 -6.2491898695283979e-04 0.0000000000000000e+00  -1.3379409972526042e-02 -6.0073831998046614e-04 0.0000000000000000e+00  -2.3191202332398669e-02 -5.7210088183155545e-04 0.0000000000000000e+00  -3.6149931614878242e-02 -5.3772519737770247e-04 0.0000000000000000e+00  0.0000000000000000e+00 3.7133733685568414e-06 0.0000000000000000e+00  -4.8533539036859368e-06 9.2490454518855080e-07 0.0000000000000000e+00  -6.9156322840797364e-06 -6.9156322824201253e-06 0.0000000000000000e+00  -3.8789439552954601e-06 -1.9751450956972442e-05 0.0000000000000000e+00  6.7742384514310433e-06 -3.7558790392763672e-05 0.0000000000000000e+00  2.7544443205503116e-05 -6.0284546234745716e-05 0.0000000000000000e+00  6.0887819001696677e-05 -8.7842993831273750e-05 0.0000000000000000e+00  1.0920290676514482e-04 -1.2011611671731498e-04 0.0000000000000000e+00  1.7481842695591673e-04 -1.5695449653174769e-04 0.0000000000000000e+00  2.5997974543923532e-04 -1.9817726451438477e-04 0.0000000000000000e+00  3.6683366235489175e-04 -2.4357102757031115e-04 0.0000000000000000e+00  4.9741138664591321e-04 -2.9288809837770729e-04 0.0000000000000000e+00  6.5360943422707637e-04 -3.4584434328281444e-04 0.0000000000000000e+00  8.3716797370964535e-04 -4.0211687616237843e-04 0.0000000000000000e+00  1.0496458265038349e-03 -4.6134176677020629e-04 0.0000000000000000e+00  1.2923908304118888e-03 -5.2311190468913701e-04 0.0000000000000000e+00  1.5665034795557852e-03 -5.8697515285022488e-04 0.0000000000000000e+00  1.8727904876536543e-03 -6.5243292906929740e-04 0.0000000000000000e+00  2.2117029413204633e-03 -7.1893936510410421e-04 0.0000000000000000e+00  2.5832506703249540e-03 -7.8590120765740536e-04 0.0000000000000000e+00  2.9868798919955165e-03 -8.5267864476956049e-04 0.0000000000000000e+00  3.4212944703393669e-03 -9.1858726335503386e-04 0.0000000000000000e+00  3.8841915025227551e-03 -9.8290137078368262e-04 0.0000000000000000e+00  4.3718685314861911e-03 -1.0448589437638239e-03 0.0000000000000000e+00  4.8786416112608982e-03 -1.1036684990234278e-03 0.0000000000000000e+00  5.3959900824387327e-03 -1.1585182050997957e-03 0.0000000000000000e+00  5.9113152610919721e-03 -1.2085875592623735e-03 0.0000000000000000e+00  6.4061676349996023e-03 -1.2530619149169963e-03 0.0000000000000000e+00  6.8537642209382070e-03 -1.2911500300070821e-03 0.0000000000000000e+00  7.2155916718967357e-03 -1.3221045719782737e-03 0.0000000000000000e+00  7.4368837756376106e-03 -1.3452451126698376e-03 0.0000000000000000e+00  7.4407926300224300e-03 -1.3599825319097454e-03 0.0000000000000000e+00  7.1211657351834207e-03 -1.3658428917692560e-03 0.0000000000000000e+00  6.3340246600566540e-03 -1.3624877278326385e-03 0.0000000000000000e+00  4.8881384083506009e-03 -1.3497262879967893e-03 0.0000000000000000e+00  2.5354996166627652e-03 -1.3275133323088230e-03 0.0000000000000000e+00  -1.0369955319091096e-03 -1.2959229953605994e-03 0.0000000000000000e+00  -6.2129000313498337e-03 -1.2550831417589415e-03 0.0000000000000000e+00  -1.3446590456213440e-02 -1.2050426438602894e-03 0.0000000000000000e+00  -2.3256856948339087e-02 -1.1455264705345391e-03 0.0000000000000000e+00  -3.6212766211221666e-02 -1.0755449032616602e-03 0.0000000000000000e+00  0.0000000000000000e+00 1.1798176286439230e-05 0.0000000000000000e+00  -1.1258416898279456e-05 7.7758980937493244e-06 0.0000000000000000e+00  -1.9751450957759509e-05 -3.8789439537931827e-06 0.0000000000000000e+00  -2.3097936772318976e-05 -2.3097936770041206e-05 0.0000000000000000e+00  -1.8813028530862627e-05 -4.9810737510314781e-05 0.0000000000000000e+00  -4.4047267000583972e-06 -8.3918336928036434e-05 0.0000000000000000e+00  2.2583476495653885e-05 -1.2528252088319516e-04 0.0000000000000000e+00  6.4555410343775487e-05 -1.7372376932098753e-04 0.0000000000000000e+00  1.2384857327846390e-04 -2.2901948799456434e-04 0.0000000000000000e+00  2.0272017687421732e-04 -2.9090173468696446e-04 0.0000000000000000e+00  3.0333197926237757e-04 -3.5905448159889925e-04 0.0000000000000000e+00  4.2773346417467978e-04 -4.3311049341995589e-04 0.0000000000000000e+00  5.7784295682337581e-04 -5.1264793649225687e-04 0.0000000000000000e+00  7.5542613381807849e-04 -5.9718686877873925e-04 0.0000000000000000e+00  9.6207110133657086e-04 -6.8618578091698967e-04 0.0000000000000000e+00  1.1991587303743999e-03 -7.7903837250601683e-04 0.0000000000000000e+00  1.4678261445103735e-03 -8.7507076119364092e-04 0.0000000000000000e+00  1.7689199885481920e-03 -9.7353933838405259e-04 0.0000000000000000e+00  2.1029341231976811e-03 -1.0736295051114496e-03 0.0000000000000000e+00  2.4699233473106470e-03 -1.1744555443959658e-03 0.0000000000000000e+00  2.8693801748422509e-03 -1.2750619116067819e-03 0.0000000000000000e+00  3.3000549723287845e-03 -1.3744262515417228e-03 0.0000000000000000e+00  3.7596901305876284e-03 -1.4714644784980624e-03 0.0000000000000000e+00  4.2446255298605367e-03 -1.5650382801528253e-03 0.0000000000000000e+00  4.7492144918453395e-03 -1.6539654213952083e-03 0.0000000000000000e+00  5.2649660641334722e-03 -1.7370332185280715e-03 0.0000000000000000e+00  5.7793008729169464e-03 -1.8130155084628259e-03 0.0000000000000000e+00  6.2737752501067761e-03 -1.8806933250533758e-03 0.0000000000000000e+00  6.7215955253531494e-03 -1.9388792812389938e-03 0.0000000000000000e+00  7.0842184814226524e-03 -1.9864453051782385e-03 0.0000000000000000e+00  7.3068272312555790e-03 -2.0223528637501390e-03 0.0000000000000000e+00  7.3125026191449873e-03 -2.0456841208718844e-03 0.0000000000000000e+00  6.9950033180532344e-03 -2.0556716441456533e-03 0.0000000000000000e+00  6.2102511379590886e-03 -2.0517233293869041e-03 0.0000000000000000e+00  4.7669152010862414e-03 -2.0334381465258911e-03 0.0000000000000000e+00  2.4169032097051211e-03 -2.0006069417332394e-03 0.0000000000000000e+00  -1.1529391104249337e-03 -1.9531904016918053e-03 0.0000000000000000e+00  -6.3261543648923746e-03 -1.8912628700853522e-03 0.0000000000000000e+00  -1.3557005605736656e-02 -1.8149065500989965e-03 0.0000000000000000e+00  -2.3363983800637460e-02 -1.7240396522858715e-03 0.0000000000000000e+00  -3.6315494099516996e-02 -1.6181720382551690e-03 0.0000000000000000e+00  0.0000000000000000e+00 2.7528519729435251e-05 0.0000000000000000e+00  -2.0136235143110690e-05 2.2242376898132348e-05 0.0000000000000000e+00  -3.7558790393211095e-05 6.7742384524216822e-06 0.0000000000000000e+00  -4.9810737510893528e-05 -1.8813028528131671e-05 0.0000000000000000e+00  -5.4417441127593286e-05 -5.4417441125365129e-05 0.0000000000000000e+00  -4.8892944983377721e-05 -9.9899575191450933e-05 0.0000000000000000e+00  -3.0779452330604075e-05 -1.5507231844726489e-04 0.0000000000000000e+00  2.3332826469228417e-06 -2.1969678139764398e-04 0.0000000000000000e+00  5.2793595899207319e-05 -2.9347902944818881e-04 0.0000000000000000e+00  1.2287395229852269e-04 -3.7606643570154612e-04 0.0000000000000000e+00  2.1475597948303620e-04 -4.6704351392354065e-04 0.0000000000000000e+00  3.3051390244484715e-04 -5.6592734351862785e-04 0.0000000000000000e+00  4.7209590085105392e-04 -6.7216274280479979e-04 0.0000000000000000e+00  6.4130279807166752e-04 -7.8511736277250366e-04 0.0000000000000000e+00  8.3976321742510699e-04 -9.0407689490813454e-04 0.0000000000000000e+00  1.0689038609968415e-03 -1.0282406136250771e-03 0.0000000000000000e+00  1.3299127750661054e-03 -1.1567175037510093e-03 0.0000000000000000e+00  1.6236921992771858e-03 -1.2885232544565303e-03 0.0000000000000000e+00  1.9507956117555457e-03 -1.4225784335043686e-03 0.0000000000000000e+00  2.3113405365048126e-03 -1.5577081882053841e-03 0.0000000000000000e+00  2.7048841023554968e-03 -1.6926438516030415e-03 0.0000000000000000e+00  3.1302416197057439e-03 -1.8260268624100860e-03 0.0000000000000000e+00  3.5852188101601346e-03 -1.9564154312779278e-03 0.0000000000000000e+00  4.0662149161971809e-03 -2.0822943989697511e-03 0.0000000000000000e+00  4.5676358696594560e-03 -2.2020887237833883e-03 0.0000000000000000e+00  5.0810333844337171e-03 -2.3141809924211868e-03 0.0000000000000000e+00  5.5938572902904087e-03 -2.4169332489713626e-03 0.0000000000000000e+00  6.0876759911237662e-03 -2.5087132559453345e-03 0.0000000000000000e+00  6.5356872522070132e-03 -2.5879250114821989e-03 0.0000000000000000e+00  6.8993158032957629e-03 -2.6530429271952221e-03 0.0000000000000000e+00  7.1236876948778307e-03 -2.7026485209374600e-03 0.0000000000000000e+00  7.1318023505449243e-03 -2.7354678286311582e-03 0.0000000000000000e+00  6.8173163889723339e-03 -2.7504070573874970e-03 0.0000000000000000e+00  6.0360365161260992e-03 -2.7465833684953127e-03 0.0000000000000000e+00  4.5965156067140954e-03 -2.7233471198863566e-03 0.0000000000000000e+00  2.2505602365827876e-03 -2.6802913029040807e-03 0.0000000000000000e+00  -1.3150494664524895e-03 -2.6172430423751884e-03 0.0000000000000000e+00  -6.4838616199031449e-03 -2.5342308797802388e-03 0.0000000000000000e+00  -1.3710055227671439e-02 -2.4314211933136980e-03 0.0000000000000000e+00  -2.3511908539729957e-02 -2.3090207192410705e-03 0.0000000000000000e+00  -3.6457400732745240e-02 -2.1671579602414084e-03 0.0000000000000000e+00  0.0000000000000000e+00 5.3389053727061991e-05 0.0000000000000000e+00  -3.1478448438992265e-05 4.6830314453494633e-05 0.0000000000000000e+00  -6.0284546236402343e-05 2.7544443207348757e-05 0.0000000000000000e+00  -8.3918336928036366e-05 -4.4047266967199626e-06 0.0000000000000000e+00  -9.9899575189456706e-05 -4.8892944981986961e-05 0.0000000000000000e+00  -1.0574525890788393e-04 -1.0574525891204607e-04 0.0000000000000000e+00  -9.8995351392869809e-05 -1.7472973650880968e-04 0.0000000000000000e+00  -7.7231933295415810e-05 -2.5555224431170149e-04 0.0000000000000000e+00  -3.8093699218709397e-05 -3.4785185563833280e-04 0.0000000000000000e+00  2.0710304133670481e-05 -4.5119590365257024e-04 0.0000000000000000e+00  1.0138610310064945e-04 -5.6507447433480759e-04 0.0000000000000000e+00  2.0603864188021231e-04 -6.8889441795760452e-04 0.0000000000000000e+00  3.3665349312106890e-04 -8.2197304775474833e-04 0.0000000000000000e+00  4.9507579835874401e-04 -9.6353173357628923e-04 0.0000000000000000e+00  6.8298553695216523e-04 -1.1126896291396543e-03 0.0000000000000000e+00  9.0186774252954598e-04 -1.2684578052050515e-03 0.0000000000000000e+00  1.1529754929884800e-03 -1.4297340990629584e-03 0.0000000000000000e+00  1.4372822309069522e-03 -1.5952990320344789e-03 0.0000000000000000e+00  1.7554179842473193e-03 -1.7638131894610963e-03 0.0000000000000000e+00  2.1075810097086556e-03 -1.9338164998588528e-03 0.0000000000000000e+00  2.4934118037465425e-03 -2.1037298889025075e-03 0.0000000000000000e+00  2.9118097054125929e-03 -2.2718598164633112e-03 0.0000000000000000e+00  3.3606626909966058e-03 -2.4364062251783954e-03 0.0000000000000000e+00  3.8364475674331467e-03 -2.5954744294974432e-03 0.0000000000000000e+00  4.3336397510699469e-03 -2.7470914426204877e-03 0.0000000000000000e+00  4.8438485520406220e-03 -2.8892271600589356e-03 0.0000000000000000e+00  5.3545654091681667e-03 -3.0198206723559880e-03 0.0000000000000000e+00  5.8473801913524219e-03 -3.1368117443721466e-03 0.0000000000000000e+00  6.2954881400055437e-03 -3.2381771572323535e-03 0.0000000000000000e+00  6.6602844693146885e-03 -3.3219711573775398e-03 0.0000000000000000e+00  6.8868372486106328e-03 -3.3863687193801248e-03 0.0000000000000000e+00  6.8980603038575720e-03 -3.4297097684994689e-03 0.0000000000000000e+00  6.5875009974434877e-03 -3.4505420277761564e-03 0.0000000000000000e+00  5.8108407820076950e-03 -3.4476598644519658e-03 0.0000000000000000e+00  4.3765028306307395e-03 -3.4201364652160764e-03 0.0000000000000000e+00  2.0361745803364304e-03 -3.3673467873278854e-03 0.0000000000000000e+00  -1.5234550878707293e-03 -3.2889788190446274e-03 0.0000000000000000e+00  -6.6859798325809008e-03 -3.1850307449949955e-03 0.0000000000000000e+00  -1.3905561993243120e-02 -3.0557926371842536e-03 0.0000000000000000e+00  -2.3700382614276795e-02 -2.9018168169144504e-03 0.0000000000000000e+00  -3.6638196562576018e-02 -2.7239025628855796e-03 0.0000000000000000e+00  0.0000000000000000e+00 9.1823384279779877e-05 0.0000000000000000e+00  -4.5243121151946840e-05 8.3991409005692937e-05 0.0000000000000000e+00  -8.7842993829513765e-05 6.0887819003475216e-05 0.0000000000000000e+00  -1.2528252088043844e-04 2.2583476497967826e-05 0.0000000000000000e+00  -1.5507231844603584e-04 -3.0779452332442828e-05 0.0000000000000000e+00  -1.7472973650768583e-04 -9.8995351391864604e-05 0.0000000000000000e+00  -1.8179199845355055e-04 -1.8179199845071552e-04 0.0000000000000000e+00  -1.7383285887276841e-04 -2.7882496856383357e-04 0.0000000000000000e+00  -1.4847653527672158e-04 -3.8967189183010842e-04 0.0000000000000000e+00  -1.0341095244802765e-04 -5.1382620530951808e-04 0.0000000000000000e+00  -3.6401752430629575e-05 -6.5069025888639137e-04 0.0000000000000000e+00  5.4692108161115282e-05 -7.9956784861447453e-04 0.0000000000000000e+00  1.7190055046225385e-04 -9.5965635361393287e-04 0.0000000000000000e+00  3.1712166771925875e-04 -1.1300387091272748e-03 0.0000000000000000e+00  4.9209717625455591e-04 -1.3096754932862672e-03 0.0000000000000000e+00  6.9838259862540727e-04 -1.4973974504402391e-03 0.0000000000000000e+00  9.3730995914222267e-04 -1.6918988228647514e-03 0.0000000000000000e+00  1.2099394999708481e-03 -1.8917319144684630e-03 0.0000000000000000e+00  1.5169949364802167e-03 -2.0953033638720750e-03 0.0000000000000000e+00  1.8587737221815561e-03 -2.3008726560401582e-03 0.0000000000000000e+00  2.2350192178867182e-03 -2.5065534488474795e-03 0.0000000000000000e+00  2.6447349450125822e-03 -2.7103183273023621e-03 0.0000000000000000e+00  3.0859114913698422e-03 -2.9100076169392306e-03 0.0000000000000000e+00  3.5551232675844267e-03 -3.1033428790071820e-03 0.0000000000000000e+00  4.0469343289760316e-03 -3.2879456603115767e-03 0.0000000000000000e+00  4.5530292680637206e-03 -3.4613619638163852e-03 0.0000000000000000e+00  5.0609567882781538e-03 -3.6210927244573884e-03 0.0000000000000000e+00  5.5523413473787314e-03 -3.7646303013477945e-03 0.0000000000000000e+00  6.0003858475263724e-03 -3.8895006255032405e-03 0.0000000000000000e+00  6.3664629289607632e-03 -3.9933101828646253e-03 0.0000000000000000e+00  6.5955861491918946e-03 -4.0737965104895111e-03 0.0000000000000000e+00  6.6105834921493713e-03 -4.1288804272487665e-03 0.0000000000000000e+00  6.3048886965153201e-03 -4.1567179342986427e-03 0.0000000000000000e+00  5.5340486645607274e-03 -4.1557497332434818e-03 0.0000000000000000e+0