<?xml version="1.0"?>
<VTKFile type="UnstructuredGrid"  version="0.1"  >
<UnstructuredGrid>
<Piece  NumberOfPoints="1681" NumberOfCells="3200">
<Points>
<DataArray  type="Float64"  NumberOfComponents="3"  format="ascii">0 0 0  0.5 0 0  1 0 0  1.5 0 0  2 0 0  2.5 0 0  3 0 0  3.5 0 0  4 0 0  4.5 0 0  5 0 0  5.5 0 0  6 0 0  6.5 0 0  7 0 0  7.5 0 0  8 0 0  8.5 0 0  9 0 0  9.5 0 0  10 0 0  10.5 0 0  11 0 0  11.5 0 0  12 0 0  12.5 0 0  13 0 0  13.5 0 0  14 0 0  14.5 0 0  15 0 0  15.5 0 0  16 0 0  16.5 0 0  17 0 0  17.5 0 0  18 0 0  18.5 0 0  19 0 0  19.5 0 0  20 0 0  0 0.5 0  0.5 0.5 0  1 0.5 0  1.5 0.5 0  2 0.5 0  2.5 0.5 0  3 0.5 0  3.5 0.5 0  4 0.5 0  4.5 0.5 0  5 0.5 0  5.5 0.5 0  6 0.5 0  6.5 0.5 0  7 0.5 0  7.5 0.5 0  8 0.5 0  8.5 0.5 0  9 0.5 0  9.5 0.5 0  10 0.5 0  10.5 0.5 0  11 0.5 0  11.5 0.5 0  12 0.5 0  12.5 0.5 0  13 0.5 0  13.5 0.5 0  14 0.5 0  14.5 0.5 0  15 0.5 0  15.5 0.5 0  16 0.5 0  16.5 0.5 0  17 0.5 0  17.5 0.5 0  18 0.5 0  18.5 0.5 0  19 0.5 0  19.5 0.5 0  20 0.5 0  0 1 0  0.5 1 0  1 1 0  1.5 1 0  2 1 0  2.5 1 0  3 1 0  3.5 1 0  4 1 0  4.5 1 0  5 1 0  5.5 1 0  6 1 0  6.5 1 0  7 1 0  7.5 1 0  8 1 0  8.5 1 0  9 1 0  9.5 1 0  10 1 0  10.5 1 0  11 1 0  11.5 1 0  12 1 0  12.5 1 0  13 1 0  13.5 1 0  14 1 0  14.5 1 0  15 1 0  15.5 1 0  16 1 0  16.5 1 0  17 1 0  17.5 1 0  18 1 0  18.5 1 0  19 1 0  19.5 1 0  20 1 0  0 1.5 0  0.5 1.5 0  1 1.5 0  1.5 1.5 0  2 1.5 0  2.5 1.5 0  3 1.5 0  3.5 1.5 0  4 1.5 0  4.5 1.5 0  5 1.5 0  5.5 1.5 0  6 1.5 0  6.5 1.5 0  7 1.5 0  7.5 1.5 0  8 1.5 0  8.5 1.5 0  9 1.5 0  9.5 1.5 0  10 1.5 0  10.5 1.5 0  11 1.5 0  11.5 1.5 0  12 1.5 0  12.5 1.5 0  13 1.5 0  13.5 1.5 0  14 1.5 0  14.5 1.5 0  15 1.5 0  15.5 1.5 0  16 1.5 0  16.5 1.5 0  17 1.5 0  17.5 1.5 0  18 1.5 0  18.5 1.5 0  19 1.5 0  19.5 1.5 0  20 1.5 0  0 2 0  0.5 2 0  1 2 0  1.5 2 0  2 2 0  2.5 2 0  3 2 0  3.5 2 0  4 2 0  4.5 2 0  5 2 0  5.5 2 0  6 2 0  6.5 2 0  7 2 0  7.5 2 0  8 2 0  8.5 2 0  9 2 0  9.5 2 0  10 2 0  10.5 2 0  11 2 0  11.5 2 0  12 2 0  12.5 2 0  13 2 0  13.5 2 0  14 2 0  14.5 2 0  15 2 0  15.5 2 0  16 2 0  16.5 2 0  17 2 0  17.5 2 0  18 2 0  18.5 2 0  19 2 0  19.5 2 0  20 2 0  0 2.5 0  0.5 2.5 0  1 2.5 0  1.5 2.5 0  2 2.5 0  2.5 2.5 0  3 2.5 0  3.5 2.5 0  4 2.5 0  4.5 2.5 0  5 2.5 0  5.5 2.5 0  6 2.5 0  6.5 2.5 0  7 2.5 0  7.5 2.5 0  8 2.5 0  8.5 2.5 0  9 2.5 0  9.5 2.5 0  10 2.5 0  10.5 2.5 0  11 2.5 0  11.5 2.5 0  12 2.5 0  12.5 2.5 0  13 2.5 0  13.5 2.5 0  14 2.5 0  14.5 2.5 0  15 2.5 0  15.5 2.5 0  16 2.5 0  16.5 2.5 0  17 2.5 0  17.5 2.5 0  18 2.5 0  18.5 2.5 0  19 2.5 0  19.5 2.5 0  20 2.5 0  0 3 0  0.5 3 0  1 3 0  1.5 3 0  2 3 0  2.5 3 0  3 3 0  3.5 3 0  4 3 0  4.5 3 0  5 3 0  5.5 3 0  6 3 0  6.5 3 0  7 3 0  7.5 3 0  8 3 0  8.5 3 0  9 3 0  9.5 3 0  10 3 0  10.5 3 0  11 3 0  11.5 3 0  12 3 0  12.5 3 0  13 3 0  13.5 3 0  14 3 0  14.5 3 0  15 3 0  15.5 3 0  16 3 0  16.5 3 0  17 3 0  17.5 3 0  18 3 0  18.5 3 0  19 3 0  19.5 3 0  20 3 0  0 3.5 0  0.5 3.5 0  1 3.5 0  1.5 3.5 0  2 3.5 0  2.5 3.5 0  3 3.5 0  3.5 3.5 0  4 3.5 0  4.5 3.5 0  5 3.5 0  5.5 3.5 0  6 3.5 0  6.5 3.5 0  7 3.5 0  7.5 3.5 0  8 3.5 0  8.5 3.5 0  9 3.5 0  9.5 3.5 0  10 3.5 0  10.5 3.5 0  11 3.5 0  11.5 3.5 0  12 3.5 0  12.5 3.5 0  13 3.5 0  13.5 3.5 0  14 3.5 0  14.5 3.5 0  15 3.5 0  15.5 3.5 0  16 3.5 0  16.5 3.5 0  17 3.5 0  17.5 3.5 0  18 3.5 0  18.5 3.5 0  19 3.5 0  19.5 3.5 0  20 3.5 0  0 4 0  0.5 4 0  1 4 0  1.5 4 0  2 4 0  2.5 4 0  3 4 0  3.5 4 0  4 4 0  4.5 4 0  5 4 0  5.5 4 0  6 4 0  6.5 4 0  7 4 0  7.5 4 0  8 4 0  8.5 4 0  9 4 0  9.5 4 0  10 4 0  10.5 4 0  11 4 0  11.5 4 0  12 4 0  12.5 4 0  13 4 0  13.5 4 0  14 4 0  14.5 4 0  15 4 0  15.5 4 0  16 4 0  16.5 4 0  17 4 0  17.5 4 0  18 4 0  18.5 4 0  19 4 0  19.5 4 0  20 4 0  0 4.5 0  0.5 4.5 0  1 4.5 0  1.5 4.5 0  2 4.5 0  2.5 4.5 0  3 4.5 0  3.5 4.5 0  4 4.5 0  4.5 4.5 0  5 4.5 0  5.5 4.5 0  6 4.5 0  6.5 4.5 0  7 4.5 0  7.5 4.5 0  8 4.5 0  8.5 4.5 0  9 4.5 0  9.5 4.5 0  10 4.5 0  10.5 4.5 0  11 4.5 0  11.5 4.5 0  12 4.5 0  12.5 4.5 0  13 4.5 0  13.5 4.5 0  14 4.5 0  14.5 4.5 0  15 4.5 0  15.5 4.5 0  16 4.5 0  16.5 4.5 0  17 4.5 0  17.5 4.5 0  18 4.5 0  18.5 4.5 0  19 4.5 0  19.5 4.5 0  20 4.5 0  0 5 0  0.5 5 0  1 5 0  1.5 5 0  2 5 0  2.5 5 0  3 5 0  3.5 5 0  4 5 0  4.5 5 0  5 5 0  5.5 5 0  6 5 0  6.5 5 0  7 5 0  7.5 5 0  8 5 0  8.5 5 0  9 5 0  9.5 5 0  10 5 0  10.5 5 0  11 5 0  11.5 5 0  12 5 0  12.5 5 0  13 5 0  13.5 5 0  14 5 0  14.5 5 0  15 5 0  15.5 5 0  16 5 0  16.5 5 0  17 5 0  17.5 5 0  18 5 0  18.5 5 0  19 5 0  19.5 5 0  20 5 0  0 5.5 0  0.5 5.5 0  1 5.5 0  1.5 5.5 0  2 5.5 0  2.5 5.5 0  3 5.5 0  3.5 5.5 0  4 5.5 0  4.5 5.5 0  5 5.5 0  5.5 5.5 0  6 5.5 0  6.5 5.5 0  7 5.5 0  7.5 5.5 0  8 5.5 0  8.5 5.5 0  9 5.5 0  9.5 5.5 0  10 5.5 0  10.5 5.5 0  11 5.5 0  11.5 5.5 0  12 5.5 0  12.5 5.5 0  13 5.5 0  13.5 5.5 0  14 5.5 0  14.5 5.5 0  15 5.5 0  15.5 5.5 0  16 5.5 0  16.5 5.5 0  17 5.5 0  17.5 5.5 0  18 5.5 0  18.5 5.5 0  19 5.5 0  19.5 5.5 0  20 5.5 0  0 6 0  0.5 6 0  1 6 0  1.5 6 0  2 6 0  2.5 6 0  3 6 0  3.5 6 0  4 6 0  4.5 6 0  5 6 0  5.5 6 0  6 6 0  6.5 6 0  7 6 0  7.5 6 0  8 6 0  8.5 6 0  9 6 0  9.5 6 0  10 6 0  10.5 6 0  11 6 0  11.5 6 0  12 6 0  12.5 6 0  13 6 0  13.5 6 0  14 6 0  14.5 6 0  15 6 0  15.5 6 0  16 6 0  16.5 6 0  17 6 0  17.5 6 0  18 6 0  18.5 6 0  19 6 0  19.5 6 0  20 6 0  0 6.5 0  0.5 6.5 0  1 6.5 0  1.5 6.5 0  2 6.5 0  2.5 6.5 0  3 6.5 0  3.5 6.5 0  4 6.5 0  4.5 6.5 0  5 6.5 0  5.5 6.5 0  6 6.5 0  6.5 6.5 0  7 6.5 0  7.5 6.5 0  8 6.5 0  8.5 6.5 0  9 6.5 0  9.5 6.5 0  10 6.5 0  10.5 6.5 0  11 6.5 0  11.5 6.5 0  12 6.5 0  12.5 6.5 0  13 6.5 0  13.5 6.5 0  14 6.5 0  14.5 6.5 0  15 6.5 0  15.5 6.5 0  16 6.5 0  16.5 6.5 0  17 6.5 0  17.5 6.5 0  18 6.5 0  18.5 6.5 0  19 6.5 0  19.5 6.5 0  20 6.5 0  0 7 0  0.5 7 0  1 7 0  1.5 7 0  2 7 0  2.5 7 0  3 7 0  3.5 7 0  4 7 0  4.5 7 0  5 7 0  5.5 7 0  6 7 0  6.5 7 0  7 7 0  7.5 7 0  8 7 0  8.5 7 0  9 7 0  9.5 7 0  10 7 0  10.5 7 0  11 7 0  11.5 7 0  12 7 0  12.5 7 0  13 7 0  13.5 7 0  14 7 0  14.5 7 0  15 7 0  15.5 7 0  16 7 0  16.5 7 0  17 7 0  17.5 7 0  18 7 0  18.5 7 0  19 7 0  19.5 7 0  20 7 0  0 7.5 0  0.5 7.5 0  1 7.5 0  1.5 7.5 0  2 7.5 0  2.5 7.5 0  3 7.5 0  3.5 7.5 0  4 7.5 0  4.5 7.5 0  5 7.5 0  5.5 7.5 0  6 7.5 0  6.5 7.5 0  7 7.5 0  7.5 7.5 0  8 7.5 0  8.5 7.5 0  9 7.5 0  9.5 7.5 0  10 7.5 0  10.5 7.5 0  11 7.5 0  11.5 7.5 0  12 7.5 0  12.5 7.5 0  13 7.5 0  13.5 7.5 0  14 7.5 0  14.5 7.5 0  15 7.5 0  15.5 7.5 0  16 7.5 0  16.5 7.5 0  17 7.5 0  17.5 7.5 0  18 7.5 0  18.5 7.5 0  19 7.5 0  19.5 7.5 0  20 7.5 0  0 8 0  0.5 8 0  1 8 0  1.5 8 0  2 8 0  2.5 8 0  3 8 0  3.5 8 0  4 8 0  4.5 8 0  5 8 0  5.5 8 0  6 8 0  6.5 8 0  7 8 0  7.5 8 0  8 8 0  8.5 8 0  9 8 0  9.5 8 0  10 8 0  10.5 8 0  11 8 0  11.5 8 0  12 8 0  12.5 8 0  13 8 0  13.5 8 0  14 8 0  14.5 8 0  15 8 0  15.5 8 0  16 8 0  16.5 8 0  17 8 0  17.5 8 0  18 8 0  18.5 8 0  19 8 0  19.5 8 0  20 8 0  0 8.5 0  0.5 8.5 0  1 8.5 0  1.5 8.5 0  2 8.5 0  2.5 8.5 0  3 8.5 0  3.5 8.5 0  4 8.5 0  4.5 8.5 0  5 8.5 0  5.5 8.5 0  6 8.5 0  6.5 8.5 0  7 8.5 0  7.5 8.5 0  8 8.5 0  8.5 8.5 0  9 8.5 0  9.5 8.5 0  10 8.5 0  10.5 8.5 0  11 8.5 0  11.5 8.5 0  12 8.5 0  12.5 8.5 0  13 8.5 0  13.5 8.5 0  14 8.5 0  14.5 8.5 0  15 8.5 0  15.5 8.5 0  16 8.5 0  16.5 8.5 0  17 8.5 0  17.5 8.5 0  18 8.5 0  18.5 8.5 0  19 8.5 0  19.5 8.5 0  20 8.5 0  0 9 0  0.5 9 0  1 9 0  1.5 9 0  2 9 0  2.5 9 0  3 9 0  3.5 9 0  4 9 0  4.5 9 0  5 9 0  5.5 9 0  6 9 0  6.5 9 0  7 9 0  7.5 9 0  8 9 0  8.5 9 0  9 9 0  9.5 9 0  10 9 0  10.5 9 0  11 9 0  11.5 9 0  12 9 0  12.5 9 0  13 9 0  13.5 9 0  14 9 0  14.5 9 0  15 9 0  15.5 9 0  16 9 0  16.5 9 0  17 9 0  17.5 9 0  18 9 0  18.5 9 0  19 9 0  19.5 9 0  20 9 0  0 9.5 0  0.5 9.5 0  1 9.5 0  1.5 9.5 0  2 9.5 0  2.5 9.5 0  3 9.5 0  3.5 9.5 0  4 9.5 0  4.5 9.5 0  5 9.5 0  5.5 9.5 0  6 9.5 0  6.5 9.5 0  7 9.5 0  7.5 9.5 0  8 9.5 0  8.5 9.5 0  9 9.5 0  9.5 9.5 0  10 9.5 0  10.5 9.5 0  11 9.5 0  11.5 9.5 0  12 9.5 0  12.5 9.5 0  13 9.5 0  13.5 9.5 0  14 9.5 0  14.5 9.5 0  15 9.5 0  15.5 9.5 0  16 9.5 0  16.5 9.5 0  17 9.5 0  17.5 9.5 0  18 9.5 0  18.5 9.5 0  19 9.5 0  19.5 9.5 0  20 9.5 0  0 10 0  0.5 10 0  1 10 0  1.5 10 0  2 10 0  2.5 10 0  3 10 0  3.5 10 0  4 10 0  4.5 10 0  5 10 0  5.5 10 0  6 10 0  6.5 10 0  7 10 0  7.5 10 0  8 10 0  8.5 10 0  9 10 0  9.5 10 0  10 10 0  10.5 10 0  11 10 0  11.5 10 0  12 10 0  12.5 10 0  13 10 0  13.5 10 0  14 10 0  14.5 10 0  15 10 0  15.5 10 0  16 10 0  16.5 10 0  17 10 0  17.5 10 0  18 10 0  18.5 10 0  19 10 0  19.5 10 0  20 10 0  0 10.5 0  0.5 10.5 0  1 10.5 0  1.5 10.5 0  2 10.5 0  2.5 10.5 0  3 10.5 0  3.5 10.5 0  4 10.5 0  4.5 10.5 0  5 10.5 0  5.5 10.5 0  6 10.5 0  6.5 10.5 0  7 10.5 0  7.5 10.5 0  8 10.5 0  8.5 10.5 0  9 10.5 0  9.5 10.5 0  10 10.5 0  10.5 10.5 0  11 10.5 0  11.5 10.5 0  12 10.5 0  12.5 10.5 0  13 10.5 0  13.5 10.5 0  14 10.5 0  14.5 10.5 0  15 10.5 0  15.5 10.5 0  16 10.5 0  16.5 10.5 0  17 10.5 0  17.5 10.5 0  18 10.5 0  18.5 10.5 0  19 10.5 0  19.5 10.5 0  20 10.5 0  0 11 0  0.5 11 0  1 11 0  1.5 11 0  2 11 0  2.5 11 0  3 11 0  3.5 11 0  4 11 0  4.5 11 0  5 11 0  5.5 11 0  6 11 0  6.5 11 0  7 11 0  7.5 11 0  8 11 0  8.5 11 0  9 11 0  9.5 11 0  10 11 0  10.5 11 0  11 11 0  11.5 11 0  12 11 0  12.5 11 0  13 11 0  13.5 11 0  14 11 0  14.5 11 0  15 11 0  15.5 11 0  16 11 0  16.5 11 0  17 11 0  17.5 11 0  18 11 0  18.5 11 0  19 11 0  19.5 11 0  20 11 0  0 11.5 0  0.5 11.5 0  1 11.5 0  1.5 11.5 0  2 11.5 0  2.5 11.5 0  3 11.5 0  3.5 11.5 0  4 11.5 0  4.5 11.5 0  5 11.5 0  5.5 11.5 0  6 11.5 0  6.5 11.5 0  7 11.5 0  7.5 11.5 0  8 11.5 0  8.5 11.5 0  9 11.5 0  9.5 11.5 0  10 11.5 0  10.5 11.5 0  11 11.5 0  11.5 11.5 0  12 11.5 0  12.5 11.5 0  13 11.5 0  13.5 11.5 0  14 11.5 0  14.5 11.5 0  15 11.5 0  15.5 11.5 0  16 11.5 0  16.5 11.5 0  17 11.5 0  17.5 11.5 0  18 11.5 0  18.5 11.5 0  19 11.5 0  19.5 11.5 0  20 11.5 0  0 12 0  0.5 12 0  1 12 0  1.5 12 0  2 12 0  2.5 12 0  3 12 0  3.5 12 0  4 12 0  4.5 12 0  5 12 0  5.5 12 0  6 12 0  6.5 12 0  7 12 0  7.5 12 0  8 12 0  8.5 12 0  9 12 0  9.5 12 0  10 12 0  10.5 12 0  11 12 0  11.5 12 0  12 12 0  12.5 12 0  13 12 0  13.5 12 0  14 12 0  14.5 12 0  
[...]
<PointData  Vectors="f_5623-0"> 
<DataArray  type="Float64"  Name="f_5623-0"  NumberOfComponents="3" format="ascii">0.0000000000000000e+00 0.0000000000000000e+00 0.0000000000000000e+00  2.1801443235856378e-06 0.0000000000000000e+00 0.0000000000000000e+00  1.0427341243519333e-05 0.0000000000000000e+00 0.0000000000000000e+00  3.2979453844451370e-05 0.0000000000000000e+00 0.0000000000000000e+00  7.6939134597231719e-05 0.0000000000000000e+00 0.0000000000000000e+00  1.4924661574177353e-04 0.0000000000000000e+00 0.0000000000000000e+00  2.5670349934387630e-04 0.0000000000000000e+00 0.0000000000000000e+00  4.0592524000805365e-04 0.0000000000000000e+00 0.0000000000000000e+00  6.0328489685765373e-04 0.0000000000000000e+00 0.0000000000000000e+00  8.5484787783843687e-04 0.0000000000000000e+00 0.0000000000000000e+00  1.1662933612823230e-03 0.0000000000000000e+00 0.0000000000000000e+00  1.5428173068507364e-03 0.0000000000000000e+00 0.0000000000000000e+00  1.9890106737499996e-03 0.0000000000000000e+00 0.0000000000000000e+00  2.5087045736161000e-03 0.0000000000000000e+00 0.0000000000000000e+00  3.1047716134202851e-03 0.0000000000000000e+00 0.0000000000000000e+00  3.7788695871968704e-03 0.0000000000000000e+00 0.0000000000000000e+00  4.5311099085439538e-03 0.0000000000000000e+00 0.0000000000000000e+00  5.3596287296536673e-03 0.0000000000000000e+00 0.0000000000000000e+00  6.2600336331429520e-03 0.0000000000000000e+00 0.0000000000000000e+00  7.2246932928984329e-03 0.0000000000000000e+00 0.0000000000000000e+00  8.2418319389818990e-03 0.0000000000000000e+00 0.0000000000000000e+00  9.2943854306682030e-03 0.0000000000000000e+00 0.0000000000000000e+00  1.0358572171441727e-02 0.0000000000000000e+00 0.0000000000000000e+00  1.1402131332426490e-02 0.0000000000000000e+00 0.0000000000000000e+00  1.2382184723051517e-02 0.0000000000000000e+00 0.0000000000000000e+00  1.3242689527423850e-02 0.0000000000000000e+00 0.0000000000000000e+00  1.3911469863246958e-02 0.0000000000000000e+00 0.0000000000000000e+00  1.4296848831604713e-02 0.0000000000000000e+00 0.0000000000000000e+00  1.4283952294305968e-02 0.0000000000000000e+00 0.0000000000000000e+00  1.3730822796159085e-02 0.0000000000000000e+00 0.0000000000000000e+00  1.2464566090260676e-02 0.0000000000000000e+00 0.0000000000000000e+00  1.0277848536402458e-02 0.0000000000000000e+00 0.0000000000000000e+00  6.9261598563852556e-03 0.0000000000000000e+00 0.0000000000000000e+00  2.1263333992457977e-03 0.0000000000000000e+00 0.0000000000000000e+00  -4.4431506839337350e-03 0.0000000000000000e+00 0.0000000000000000e+00  -1.3139593687202786e-02 0.0000000000000000e+00 0.0000000000000000e+00  -2.4350886562867598e-02 0.0000000000000000e+00 0.0000000000000000e+00  -3.8487570214418891e-02 0.0000000000000000e+00 0.0000000000000000e+00  -5.5972242664991338e-02 0.0000000000000000e+00 0.0000000000000000e+00  -7.7226162537507137e-02 0.0000000000000000e+00 0.0000000000000000e+00  -1.0265033320660706e-01 0.0000000000000000e+00 0.0000000000000000e+00  0.0000000000000000e+00 2.1801443208570596e-06 0.0000000000000000e+00  -2.4589927814420183e-06 -2.4589927849481854e-06 0.0000000000000000e+00  2.5229195644753865e-06 -1.3739811743770388e-05 0.0000000000000000e+00  2.1638918392077040e-05 -3.1768107691941741e-05 0.0000000000000000e+00  6.2061872608623530e-05 -5.6717915510884462e-05 0.0000000000000000e+00  1.3079936772810520e-04 -8.8580227909809713e-05 0.0000000000000000e+00  2.3467986881364682e-04 -1.2724473932161369e-04 0.0000000000000000e+00  3.8033081321372250e-04 -1.7254283584083695e-04 0.0000000000000000e+00  5.7413311409091803e-04 -2.2426110480924764e-04 0.0000000000000000e+00  8.2215965227249571e-04 -2.8214371055523975e-04 0.0000000000000000e+00  1.1300980733001411e-03 -3.4589102489451681e-04 0.0000000000000000e+00  1.5031543672917676e-03 -4.1515698963000524e-04 0.0000000000000000e+00  1.9459313474452754e-03 -4.8954604551920428e-04 0.0000000000000000e+00  2.4622739156547556e-03 -5.6860996244138134e-04 0.0000000000000000e+00  3.0550704220742957e-03 -6.5184476453238494e-04 0.0000000000000000e+00  3.7259962903195749e-03 -7.3868791267917380e-04 0.0000000000000000e+00  4.4751822974482070e-03 -8.2851591066074673e-04 0.0000000000000000e+00  5.3007854454925436e-03 -9.2064251633898714e-04 0.0000000000000000e+00  6.1984352992449461e-03 -1.0143177589430463e-03 0.0000000000000000e+00  7.1605231762599079e-03 -1.1087279829079446e-03 0.0000000000000000e+00  8.1752960176491776e-03 -1.2029971573803199e-03 0.0000000000000000e+00  9.2257117463298410e-03 -1.2961897053703582e-03 0.0000000000000000e+00  1.0288009363393906e-02 -1.3873151166020261e-03 0.0000000000000000e+00  1.1329946288430389e-02 -1.4753346095069063e-03 0.0000000000000000e+00  1.2308659353424617e-02 -1.5591700973548062e-03 0.0000000000000000e+00  1.3168116780542962e-02 -1.6377156834118138e-03 0.0000000000000000e+00  1.3836149259939675e-02 -1.7098518522597232e-03 0.0000000000000000e+00  1.4221082000823882e-02 -1.7744624242663897e-03 0.0000000000000000e+00  1.4208039224306881e-02 -1.8304541828985702e-03 0.0000000000000000e+00  1.3655059728034939e-02 -1.8767788518116145e-03 0.0000000000000000e+00  1.2389246090602407e-02 -1.9124567809616197e-03 0.0000000000000000e+00  1.0203265666865345e-02 -1.9366013042435362e-03 0.0000000000000000e+00  6.8526173464077541e-03 -1.9484422949343151e-03 0.0000000000000000e+00  2.0541551220320444e-03 -1.9473470537205982e-03 0.0000000000000000e+00  -4.5136081549189307e-03 -1.9328364381295752e-03 0.0000000000000000e+00  -1.3207935035075393e-02 -1.9045941433436296e-03 0.0000000000000000e+00  -2.4416693857334484e-02 -1.8624668311040763e-03 0.0000000000000000e+00  -3.8550490859610487e-02 -1.8064495955697727e-03 0.0000000000000000e+00  -5.6032356009319328e-02 -1.7366331922580194e-03 0.0000000000000000e+00  -7.7285727744611663e-02 -1.6530144712450302e-03 0.0000000000000000e+00  -1.0272286817544435e-01 -1.5548582515102557e-03 0.0000000000000000e+00  0.0000000000000000e+00 1.0427341238210583e-05 0.0000000000000000e+00  -1.3739811745031327e-05 2.5229195637971668e-06 0.0000000000000000e+00  -1.9593679096287576e-05 -1.9593679092515159e-05 0.0000000000000000e+00  -1.1179573026044095e-05 -5.5716599908985511e-05 0.0000000000000000e+00  1.8545875218587111e-05 -1.0577927377578482e-04 0.0000000000000000e+00  7.6569752398883911e-05 -1.6964037297979728e-04 0.0000000000000000e+00  1.6973247700006951e-04 -2.4706790319395291e-04 0.0000000000000000e+00  3.0467937567778378e-04 -3.3773842239058597e-04 0.0000000000000000e+00  4.8781086356187249e-04 -4.4123977943800791e-04 0.0000000000000000e+00  7.2522160985704341e-04 -5.5707177686842584e-04 0.0000000000000000e+00  1.0226245863576991e-03 -6.8464400204113136e-04 0.0000000000000000e+00  1.3852556396011344e-03 -8.2327162330071062e-04 0.0000000000000000e+00  1.8177526348334052e-03 -9.7217002363575976e-04 0.0000000000000000e+00  2.3240011118869186e-03 -1.1304489279828182e-03 0.0000000000000000e+00  2.9069358005392124e-03 -1.2971065117168890e-03 0.0000000000000000e+00  3.5682841815560190e-03 -1.4710238940111562e-03 0.0000000000000000e+00  4.3082344782089874e-03 -1.6509603946572682e-03 0.0000000000000000e+00  5.1250059995267168e-03 -1.8355499402212356e-03 0.0000000000000000e+00  6.0142946903274010e-03 -2.0232990278004123e-03 0.0000000000000000e+00  6.9685612549379421e-03 -2.2125866822576322e-03 0.0000000000000000e+00  7.9761236700935604e-03 -2.4016668686668964e-03 0.0000000000000000e+00  9.0200108915165222e-03 -2.5886738408281785e-03 0.0000000000000000e+00  1.0076531019761699e-02 -2.7716309142280702e-03 0.0000000000000000e+00  1.1113506469825717e-02 -2.9484631423543016e-03 0.0000000000000000e+00  1.2088132623480827e-02 -3.1170143430430510e-03 0.0000000000000000e+00  1.2944427400784294e-02 -3.2750688576745264e-03 0.0000000000000000e+00  1.3610260012813935e-02 -3.4203783211921406e-03 0.0000000000000000e+00  1.3993980951276441e-02 -3.5506935605745687e-03 0.0000000000000000e+00  1.3980724887133270e-02 -3.6638015085102590e-03 0.0000000000000000e+00  1.3428525301298613e-02 -3.7575666994447000e-03 0.0000000000000000e+00  1.2164463542382205e-02 -3.8299764947369876e-03 0.0000000000000000e+00  9.9811704424478988e-03 -3.8791886602205301e-03 0.0000000000000000e+00  6.6340941855441236e-03 -3.9035793130999673e-03 0.0000000000000000e+00  1.8400247951941818e-03 -3.9017886052967049e-03 0.0000000000000000e+00  -4.7226026840402969e-03 -3.8727608404365652e-03 0.0000000000000000e+00  -1.3411146821830144e-02 -3.8157749156381509e-03 0.0000000000000000e+00  -2.4613602353134725e-02 -3.7304595767882905e-03 0.0000000000000000e+00  -3.8740758424531563e-02 -3.6167854379019508e-03 0.0000000000000000e+00  -5.6215926314923899e-02 -3.4750257397235950e-03 0.0000000000000000e+00  -7.7462887069544767e-02 -3.3057134026375883e-03 0.0000000000000000e+00  -1.0289305239230871e-01 -3.1098789605159935e-03 0.0000000000000000e+00  0.0000000000000000e+00 3.2979453844365806e-05 0.0000000000000000e+00  -3.1768107693317112e-05 2.1638918391536711e-05 0.0000000000000000e+00  -5.5716599907852446e-05 -1.1179573026406267e-05 0.0000000000000000e+00  -6.5239336777189283e-05 -6.5239336776774901e-05 0.0000000000000000e+00  -5.3399771813547930e-05 -1.4033229767492037e-04 0.0000000000000000e+00  -1.3241094367597991e-05 -2.3618241185047078e-04 0.0000000000000000e+00  6.2074990833880305e-05 -3.5240754274974581e-04 0.0000000000000000e+00  1.7920677558238245e-04 -4.8851130636285507e-04 0.0000000000000000e+00  3.4457774309231109e-04 -6.4387770359959954e-04 0.0000000000000000e+00  5.6431401367636820e-04 -8.1776505876304665e-04 0.0000000000000000e+00  8.4416821119961732e-04 -1.0092990031248127e-03 0.0000000000000000e+00  1.1894244311391388e-03 -1.2174645319744423e-03 0.0000000000000000e+00  1.6047778896764486e-03 -1.4410973481939948e-03 0.0000000000000000e+00  2.0941809754137894e-03 -1.6788748487507395e-03 0.0000000000000000e+00  2.6606449439986533e-03 -1.9293071920687616e-03 0.0000000000000000e+00  3.3059833793098307e-03 -2.1907289310925081e-03 0.0000000000000000e+00  4.0304797595763671e-03 -2.4612917340106027e-03 0.0000000000000000e+00  4.8324570086146056e-03 -2.7389587528101737e-03 0.0000000000000000e+00  5.7077218493433255e-03 -3.0215012406148811e-03 0.0000000000000000e+00  6.6488512939983585e-03 -3.3064980590958256e-03 0.0000000000000000e+00  7.6442830632571851e-03 -3.5913387515213537e-03 0.0000000000000000e+00  8.6771667303998812e-03 -3.8732308807178867e-03 0.0000000000000000e+00  9.7239288687113595e-03 -4.1492123375254453e-03 0.0000000000000000e+00  1.0752504787309550e-02 -4.4161693090768069e-03 0.0000000000000000e+00  1.1720193409519287e-02 -4.6708605504019131e-03 0.0000000000000000e+00  1.2571102845367018e-02 -4.9099485205023686e-03 0.0000000000000000e+00  1.3233175077489504e-02 -5.1300378162212933e-03 0.0000000000000000e+00  1.3614812011894788e-02 -5.3277211523612466e-03 0.0000000000000000e+00  1.3601174787774133e-02 -5.4996328801637778e-03 0.0000000000000000e+00  1.3050295393385015e-02 -5.6425096884771386e-03 0.0000000000000000e+00  1.1789223471696751e-02 -5.7532576705324329e-03 0.0000000000000000e+00  9.6105265530189218e-03 -5.8290243415408342e-03 0.0000000000000000e+00  6.2695573897461254e-03 -5.8672734418918756e-03 0.0000000000000000e+00  1.4829786020674988e-03 -5.8658594551807266e-03 0.0000000000000000e+00  -5.0709335007408669e-03 -5.8230977279387164e-03 0.0000000000000000e+00  -1.3749726383847916e-02 -5.7378249850573264e-03 0.0000000000000000e+00  -2.4941611019562444e-02 -5.6094443023250199e-03 0.0000000000000000e+00  -3.9057611875319712e-02 -5.4379499636858951e-03 0.0000000000000000e+00  -5.6521272043463730e-02 -5.2239366584237315e-03 0.0000000000000000e+00  -7.7756548149162830e-02 -4.9686248709620373e-03 0.0000000000000000e+00  -1.0317494135946126e-01 -4.6739679068936082e-03 0.0000000000000000e+00  0.0000000000000000e+00 7.6939134597034517e-05 0.0000000000000000e+00  -5.6717915512867962e-05 6.2061872607961462e-05 0.0000000000000000e+00  -1.0577927377584080e-04 1.8545875220447636e-05 0.0000000000000000e+00  -1.4033229767973780e-04 -5.3399771808762275e-05 0.0000000000000000e+00  -1.5347422519067049e-04 -1.5347422518690711e-04 0.0000000000000000e+00  -1.3827009851656889e-04 -2.8128437848695594e-04 0.0000000000000000e+00  -8.7881159992353724e-05 -4.3630868369906291e-04 0.0000000000000000e+00  4.3663904851147208e-06 -6.1788324646605780e-04 0.0000000000000000e+00  1.4492391355821650e-04 -8.2519218548645799e-04 0.0000000000000000e+00  3.3995736085391240e-04 -1.0572577555584908e-03 0.0000000000000000e+00  5.9527143210718074e-04 -1.3129294040578156e-03 0.0000000000000000e+00  9.1621506305721511e-04 -1.5908718812006964e-03 0.0000000000000000e+00  1.3075616116884950e-03 -1.8895527310112869e-03 0.0000000000000000e+00  1.7733553217621103e-03 -2.2072295632332758e-03 0.0000000000000000e+00  2.3167131930400403e-03 -2.5419375768208417e-03 0.0000000000000000e+00  2.9395682910163664e-03 -2.8914778823091671e-03 0.0000000000000000e+00  3.6423367563989161e-03 -3.2534072480861534e-03 0.0000000000000000e+00  4.4234863256241786e-03 -3.6250299702253810e-03 0.0000000000000000e+00  5.2789791185606930e-03 -4.0033926356127731e-03 0.0000000000000000e+00  6.2015559765126304e-03 -4.3852826107877423e-03 0.0000000000000000e+00  7.1798241047319562e-03 -4.7672311399354194e-03 0.0000000000000000e+00  8.1971047962076955e-03 -5.1455219713990568e-03 0.0000000000000000e+00  9.2299945207767464e-03 -5.5162064455907267e-03 0.0000000000000000e+00  1.0246592002476431e-02 -5.8751259648996924e-03 0.0000000000000000e+00  1.1204347915896444e-02 -6.2179427204236016e-03 0.0000000000000000e+00  1.2047504873788204e-02 -6.5401794664461622e-03 0.0000000000000000e+00  1.2704116292527955e-02 -6.8372690030576591e-03 0.0000000000000000e+00  1.3082666598744151e-02 -7.1046138399179131e-03 0.0000000000000000e+00  1.3068364919307603e-02 -7.3376562526069151e-03 0.0000000000000000e+00  1.2519251569880962e-02 -7.5319585809711497e-03 0.0000000000000000e+00  1.1262340492090810e-02 -7.6832931180628511e-03 0.0000000000000000e+00  9.0901161199178158e-03 -7.7877402506699661e-03 0.0000000000000000e+00  5.7577985654684860e-03 -7.8417925903401433e-03 0.0000000000000000e+00  9.8186755769884108e-04 -7.8424616560274097e-03 0.0000000000000000e+00  -5.5596326547078584e-03 -7.7873822909685303e-03 0.0000000000000000e+00  -1.4224527251107583e-02 -7.6749086497440401e-03 0.0000000000000000e+00  -2.5401343622825076e-02 -7.5041948470423508e-03 0.0000000000000000e+00  -3.9501450327329712e-02 -7.2752541765871486e-03 0.0000000000000000e+00  -5.6948749064553224e-02 -6.9889932361772971e-03 0.0000000000000000e+00  -7.8167559620491101e-02 -6.6472131589408769e-03 0.0000000000000000e+00  -1.0356973407839158e-01 -6.2525185745730865e-03 0.0000000000000000e+00  0.0000000000000000e+00 1.4924661574619255e-04 0.0000000000000000e+00  -8.8580227910083867e-05 1.3079936772817939e-04 0.0000000000000000e+00  -1.6964037298236936e-04 7.6569752400149554e-05 0.0000000000000000e+00  -2.3618241185479632e-04 -1.3241094363774536e-05 0.0000000000000000e+00  -2.8128437848788348e-04 -1.3827009851536453e-04 0.0000000000000000e+00  -2.9802221214934648e-04 -2.9802221214775948e-04 0.0000000000000000e+00  -2.7955351317606472e-04 -4.9184831270152160e-04 0.0000000000000000e+00  -2.1918554612701896e-04 -7.1892839103957753e-04 0.0000000000000000e+00  -1.1043354675240871e-04 -9.7825829005665195e-04 0.0000000000000000e+00  5.2916570886066745e-05 -1.2686363379034516e-03 0.0000000000000000e+00  2.7673320397837112e-04 -1.5886488605536407e-03 0.0000000000000000e+00  5.6644550427971158e-04 -1.9366545758982005e-03 0.0000000000000000e+00  9.2692441584981615e-04 -2.3107682115279700e-03 0.0000000000000000e+00  1.3623297595221184e-03 -2.7088438282050582e-03 0.0000000000000000e+00  1.8759123979885314e-03 -3.1284584218893557e-03 0.0000000000000000e+00  2.4697574260727113e-03 -3.5668964635803355e-03 0.0000000000000000e+00  3.1444505601999078e-03 -4.0211361275830039e-03 0.0000000000000000e+00  3.8986454543541698e-03 -4.4878380527531595e-03 0.0000000000000000e+00  4.7285046197731561e-03 -4.9633375733969419e-03 0.0000000000000000e+00  5.6269811616242969e-03 -5.4436414418020341e-03 0.0000000000000000e+00  6.5829030311136362e-03 -5.9244301370786467e-03 0.0000000000000000e+00  7.5798165345248528e-03 -6.4010669101200257e-03 0.0000000000000000e+00  8.5945423751186446e-03 -6.8686147459738941e-03 0.0000000000000000e+00  9.5953968775529131e-03 -7.3218624280669024e-03 0.0000000000000000e+00  1.0540035094132035e-02 -7.7553608577538517e-03 0.0000000000000000e+00  1.1372883581698459e-02 -8.1634707124146645e-03 0.0000000000000000e+00  1.2022151604465542e-02 -8.5404224081570557e-03 0.0000000000000000e+00  1.2396443448184335e-02 -8.8803891564391141e-03 0.0000000000000000e+00  1.2381044260571093e-02 -9.1775736455927490e-03 0.0000000000000000e+00  1.1834019050510498e-02 -9.4263085006078794e-03 0.0000000000000000e+00  1.0582348348758935e-02 -9.6211701205383467e-03 0.0000000000000000e+00  8.4184193923148524e-03 -9.7571046876593417e-03 0.0000000000000000e+00  5.0972871353882170e-03 -9.8295640089470920e-03 0.0000000000000000e+00  3.3519598562466076e-04 -9.8346473462009604e-03 0.0000000000000000e+00  -6.1901149737906046e-03 -9.7692435670924047e-03 0.0000000000000000e+00  -1.4836842467257588e-02 -9.6311660119291678e-03 0.0000000000000000e+00  -2.5993944670160422e-02 -9.4192707460618395e-03 0.0000000000000000e+00  -4.0073269140880663e-02 -9.1335473879932422e-03 0.0000000000000000e+00  -5.7499228542778953e-02 -8.7751687954971559e-03 0.0000000000000000e+00  -7.8696650367790444e-02 -8.3464754714301231e-03 0.0000000000000000e+00  -1.0407776599601652e-01 -7.8508431182881984e-03 0.0000000000000000e+00  0.0000000000000000e+00 2.5670349934383147e-04 0.0000000000000000e+00  -1.2724473932265856e-04 2.3467986881444696e-04 0.0000000000000000e+00  -2.4706790319707037e-04 1.6973247700478690e-04 0.0000000000000000e+00  -3.5240754275186759e-04 6.2074990837094056e-05 0.0000000000000000e+00  -4.3630868370080674e-04 -8.7881159989459934e-05 0.0000000000000000e+00  -4.9184831270405603e-04 -2.7955351317397552e-04 0.0000000000000000e+00  -5.1217808771918008e-04 -5.1217808771888051e-04 0.0000000000000000e+00  -4.9058430595098044e-04 -7.8479221200643593e-04 0.0000000000000000e+00  -4.2054476036958708e-04 -1.0962182742950681e-03 0.0000000000000000e+00  -2.9579036054220166e-04 -1.4450469290905388e-03 0.0000000000000000e+00  -1.1037882775185924e-04 -1.8296189917530526e-03 0.0000000000000000e+00  1.4121310147748874e-04 -2.2480060009537018e-03 0.0000000000000000e+00  4.6397191444457083e-04 -2.6979897922280068e-03 0.0000000000000000e+00  8.6219531893851910e-04 -3.1770416114042283e-03 0.0000000000000000e+00  1.3392949217606099e-03 -3.6823014226056452e-03 0.0000000000000000e+00  1.8975394333742694e-03 -4.2105581777581585e-03 0.0000000000000000e+00  2.5377204736463212e-03 -4.7582319273115374e-03 0.0000000000000000e+00  3.2587186070731585e-03 -5.3213587666593272e-03 0.0000000000000000e+00  4.0569421882872591e-03 -5.8955797276695520e-03 0.0000000000000000e+00  4.9256061416165431e-03 -6.4761348340119261e-03 0.0000000000000000e+00  5.8538122964827879e-03 -7.0578636377533598e-03 0.0000000000000000e+00  6.8253879631270239e-03 -7.6352136361760112e-03 0.0000000000000000e+00  7.8174359950203085e-03 -8.2022580268391286e-03 0.0000000000000000e+00  8.7985489934569189e-03 -8.7527242897165753e-03 0.0000000000000000e+00  9.7266444031736104e-03 -9.2800350828386429e-03 0.0000000000000000e+00  1.0546388388690981e-02 -9.7773628959308880e-03 0.0000000000000000e+00  1.1186197406121184e-02 -1.0237699816605710e-02 0.0000000000000000e+00  1.1554840379982992e-02 -1.0653943608947215e-02 0.0000000000000000e+00  1.1537714194143279e-02 -1.1019001055065083e-02 0.0000000000000000e+00  1.0992932497821033e-02 -1.1325909114992492e-02 0.0000000000000000e+00  9.7474517759988388e-03 -1.1567973840301990e-02 0.0000000000000000e+00  7.5935540733662182e-03 -1.1738926027932041e-02 0.0000000000000000e+00  4.2861012839264948e-03 -1.1833091211460634e-02 0.0000000000000000e+00  -4.5894740390248147e-04 -1.1845569681715256e-02 0.000000