<?xml version="1.0"?>
<VTKFile type="UnstructuredGrid"  version="0.1"  >
<UnstructuredGrid>
<Piece  NumberOfPoints="1681" NumberOfCells="3200">
<Points>
<DataArray  type="Float64"  NumberOfComponents="3"  format="ascii">0 0 0  0.5 0 0  1 0 0  1.5 0 0  2 0 0  2.5 0 0  3 0 0  3.5 0 0  4 0 0  4.5 0 0  5 0 0  5.5 0 0  6 0 0  6.5 0 0  7 0 0  7.5 0 0  8 0 0  8.5 0 0  9 0 0  9.5 0 0  10 0 0  10.5 0 0  11 0 0  11.5 0 0  12 0 0  12.5 0 0  13 0 0  13.5 0 0  14 0 0  14.5 0 0  15 0 0  15.5 0 0  16 0 0  16.5 0 0  17 0 0  17.5 0 0  18 0 0  18.5 0 0  19 0 0  19.5 0 0  20 0 0  0 0.5 0  0.5 0.5 0  1 0.5 0  1.5 0.5 0  2 0.5 0  2.5 0.5 0  3 0.5 0  3.5 0.5 0  4 0.5 0  4.5 0.5 0  5 0.5 0  5.5 0.5 0  6 0.5 0  6.5 0.5 0  7 0.5 0  7.5 0.5 0  8 0.5 0  8.5 0.5 0  9 0.5 0  9.5 0.5 0  10 0.5 0  10.5 0.5 0  11 0.5 0  11.5 0.5 0  12 0.5 0  12.5 0.5 0  13 0.5 0  13.5 0.5 0  14 0.5 0  14.5 0.5 0  15 0.5 0  15.5 0.5 0  16 0.5 0  16.5 0.5 0  17 0.5 0  17.5 0.5 0  18 0.5 0  18.5 0.5 0  19 0.5 0  19.5 0.5 0  20 0.5 0  0 1 0  0.5 1 0  1 1 0  1.5 1 0  2 1 0  2.5 1 0  3 1 0  3.5 1 0  4 1 0  4.5 1 0  5 1 0  5.5 1 0  6 1 0  6.5 1 0  7 1 0  7.5 1 0  8 1 0  8.5 1 0  9 1 0  9.5 1 0  10 1 0  10.5 1 0  11 1 0  11.5 1 0  12 1 0  12.5 1 0  13 1 0  13.5 1 0  14 1 0  14.5 1 0  15 1 0  15.5 1 0  16 1 0  16.5 1 0  17 1 0  17.5 1 0  18 1 0  18.5 1 0  19 1 0  19.5 1 0  20 1 0  0 1.5 0  0.5 1.5 0  1 1.5 0  1.5 1.5 0  2 1.5 0  2.5 1.5 0  3 1.5 0  3.5 1.5 0  4 1.5 0  4.5 1.5 0  5 1.5 0  5.5 1.5 0  6 1.5 0  6.5 1.5 0  7 1.5 0  7.5 1.5 0  8 1.5 0  8.5 1.5 0  9 1.5 0  9.5 1.5 0  10 1.5 0  10.5 1.5 0  11 1.5 0  11.5 1.5 0  12 1.5 0  12.5 1.5 0  13 1.5 0  13.5 1.5 0  14 1.5 0  14.5 1.5 0  15 1.5 0  15.5 1.5 0  16 1.5 0  16.5 1.5 0  17 1.5 0  17.5 1.5 0  18 1.5 0  18.5 1.5 0  19 1.5 0  19.5 1.5 0  20 1.5 0  0 2 0  0.5 2 0  1 2 0  1.5 2 0  2 2 0  2.5 2 0  3 2 0  3.5 2 0  4 2 0  4.5 2 0  5 2 0  5.5 2 0  6 2 0  6.5 2 0  7 2 0  7.5 2 0  8 2 0  8.5 2 0  9 2 0  9.5 2 0  10 2 0  10.5 2 0  11 2 0  11.5 2 0  12 2 0  12.5 2 0  13 2 0  13.5 2 0  14 2 0  14.5 2 0  15 2 0  15.5 2 0  16 2 0  16.5 2 0  17 2 0  17.5 2 0  18 2 0  18.5 2 0  19 2 0  19.5 2 0  20 2 0  0 2.5 0  0.5 2.5 0  1 2.5 0  1.5 2.5 0  2 2.5 0  2.5 2.5 0  3 2.5 0  3.5 2.5 0  4 2.5 0  4.5 2.5 0  5 2.5 0  5.5 2.5 0  6 2.5 0  6.5 2.5 0  7 2.5 0  7.5 2.5 0  8 2.5 0  8.5 2.5 0  9 2.5 0  9.5 2.5 0  10 2.5 0  10.5 2.5 0  11 2.5 0  11.5 2.5 0  12 2.5 0  12.5 2.5 0  13 2.5 0  13.5 2.5 0  14 2.5 0  14.5 2.5 0  15 2.5 0  15.5 2.5 0  16 2.5 0  16.5 2.5 0  17 2.5 0  17.5 2.5 0  18 2.5 0  18.5 2.5 0  19 2.5 0  19.5 2.5 0  20 2.5 0  0 3 0  0.5 3 0  1 3 0  1.5 3 0  2 3 0  2.5 3 0  3 3 0  3.5 3 0  4 3 0  4.5 3 0  5 3 0  5.5 3 0  6 3 0  6.5 3 0  7 3 0  7.5 3 0  8 3 0  8.5 3 0  9 3 0  9.5 3 0  10 3 0  10.5 3 0  11 3 0  11.5 3 0  12 3 0  12.5 3 0  13 3 0  13.5 3 0  14 3 0  14.5 3 0  15 3 0  15.5 3 0  16 3 0  16.5 3 0  17 3 0  17.5 3 0  18 3 0  18.5 3 0  19 3 0  19.5 3 0  20 3 0  0 3.5 0  0.5 3.5 0  1 3.5 0  1.5 3.5 0  2 3.5 0  2.5 3.5 0  3 3.5 0  3.5 3.5 0  4 3.5 0  4.5 3.5 0  5 3.5 0  5.5 3.5 0  6 3.5 0  6.5 3.5 0  7 3.5 0  7.5 3.5 0  8 3.5 0  8.5 3.5 0  9 3.5 0  9.5 3.5 0  10 3.5 0  10.5 3.5 0  11 3.5 0  11.5 3.5 0  12 3.5 0  12.5 3.5 0  13 3.5 0  13.5 3.5 0  14 3.5 0  14.5 3.5 0  15 3.5 0  15.5 3.5 0  16 3.5 0  16.5 3.5 0  17 3.5 0  17.5 3.5 0  18 3.5 0  18.5 3.5 0  19 3.5 0  19.5 3.5 0  20 3.5 0  0 4 0  0.5 4 0  1 4 0  1.5 4 0  2 4 0  2.5 4 0  3 4 0  3.5 4 0  4 4 0  4.5 4 0  5 4 0  5.5 4 0  6 4 0  6.5 4 0  7 4 0  7.5 4 0  8 4 0  8.5 4 0  9 4 0  9.5 4 0  10 4 0  10.5 4 0  11 4 0  11.5 4 0  12 4 0  12.5 4 0  13 4 0  13.5 4 0  14 4 0  14.5 4 0  15 4 0  15.5 4 0  16 4 0  16.5 4 0  17 4 0  17.5 4 0  18 4 0  18.5 4 0  19 4 0  19.5 4 0  20 4 0  0 4.5 0  0.5 4.5 0  1 4.5 0  1.5 4.5 0  2 4.5 0  2.5 4.5 0  3 4.5 0  3.5 4.5 0  4 4.5 0  4.5 4.5 0  5 4.5 0  5.5 4.5 0  6 4.5 0  6.5 4.5 0  7 4.5 0  7.5 4.5 0  8 4.5 0  8.5 4.5 0  9 4.5 0  9.5 4.5 0  10 4.5 0  10.5 4.5 0  11 4.5 0  11.5 4.5 0  12 4.5 0  12.5 4.5 0  13 4.5 0  13.5 4.5 0  14 4.5 0  14.5 4.5 0  15 4.5 0  15.5 4.5 0  16 4.5 0  16.5 4.5 0  17 4.5 0  17.5 4.5 0  18 4.5 0  18.5 4.5 0  19 4.5 0  19.5 4.5 0  20 4.5 0  0 5 0  0.5 5 0  1 5 0  1.5 5 0  2 5 0  2.5 5 0  3 5 0  3.5 5 0  4 5 0  4.5 5 0  5 5 0  5.5 5 0  6 5 0  6.5 5 0  7 5 0  7.5 5 0  8 5 0  8.5 5 0  9 5 0  9.5 5 0  10 5 0  10.5 5 0  11 5 0  11.5 5 0  12 5 0  12.5 5 0  13 5 0  13.5 5 0  14 5 0  14.5 5 0  15 5 0  15.5 5 0  16 5 0  16.5 5 0  17 5 0  17.5 5 0  18 5 0  18.5 5 0  19 5 0  19.5 5 0  20 5 0  0 5.5 0  0.5 5.5 0  1 5.5 0  1.5 5.5 0  2 5.5 0  2.5 5.5 0  3 5.5 0  3.5 5.5 0  4 5.5 0  4.5 5.5 0  5 5.5 0  5.5 5.5 0  6 5.5 0  6.5 5.5 0  7 5.5 0  7.5 5.5 0  8 5.5 0  8.5 5.5 0  9 5.5 0  9.5 5.5 0  10 5.5 0  10.5 5.5 0  11 5.5 0  11.5 5.5 0  12 5.5 0  12.5 5.5 0  13 5.5 0  13.5 5.5 0  14 5.5 0  14.5 5.5 0  15 5.5 0  15.5 5.5 0  16 5.5 0  16.5 5.5 0  17 5.5 0  17.5 5.5 0  18 5.5 0  18.5 5.5 0  19 5.5 0  19.5 5.5 0  20 5.5 0  0 6 0  0.5 6 0  1 6 0  1.5 6 0  2 6 0  2.5 6 0  3 6 0  3.5 6 0  4 6 0  4.5 6 0  5 6 0  5.5 6 0  6 6 0  6.5 6 0  7 6 0  7.5 6 0  8 6 0  8.5 6 0  9 6 0  9.5 6 0  10 6 0  10.5 6 0  11 6 0  11.5 6 0  12 6 0  12.5 6 0  13 6 0  13.5 6 0  14 6 0  14.5 6 0  15 6 0  15.5 6 0  16 6 0  16.5 6 0  17 6 0  17.5 6 0  18 6 0  18.5 6 0  19 6 0  19.5 6 0  20 6 0  0 6.5 0  0.5 6.5 0  1 6.5 0  1.5 6.5 0  2 6.5 0  2.5 6.5 0  3 6.5 0  3.5 6.5 0  4 6.5 0  4.5 6.5 0  5 6.5 0  5.5 6.5 0  6 6.5 0  6.5 6.5 0  7 6.5 0  7.5 6.5 0  8 6.5 0  8.5 6.5 0  9 6.5 0  9.5 6.5 0  10 6.5 0  10.5 6.5 0  11 6.5 0  11.5 6.5 0  12 6.5 0  12.5 6.5 0  13 6.5 0  13.5 6.5 0  14 6.5 0  14.5 6.5 0  15 6.5 0  15.5 6.5 0  16 6.5 0  16.5 6.5 0  17 6.5 0  17.5 6.5 0  18 6.5 0  18.5 6.5 0  19 6.5 0  19.5 6.5 0  20 6.5 0  0 7 0  0.5 7 0  1 7 0  1.5 7 0  2 7 0  2.5 7 0  3 7 0  3.5 7 0  4 7 0  4.5 7 0  5 7 0  5.5 7 0  6 7 0  6.5 7 0  7 7 0  7.5 7 0  8 7 0  8.5 7 0  9 7 0  9.5 7 0  10 7 0  10.5 7 0  11 7 0  11.5 7 0  12 7 0  12.5 7 0  13 7 0  13.5 7 0  14 7 0  14.5 7 0  15 7 0  15.5 7 0  16 7 0  16.5 7 0  17 7 0  17.5 7 0  18 7 0  18.5 7 0  19 7 0  19.5 7 0  20 7 0  0 7.5 0  0.5 7.5 0  1 7.5 0  1.5 7.5 0  2 7.5 0  2.5 7.5 0  3 7.5 0  3.5 7.5 0  4 7.5 0  4.5 7.5 0  5 7.5 0  5.5 7.5 0  6 7.5 0  6.5 7.5 0  7 7.5 0  7.5 7.5 0  8 7.5 0  8.5 7.5 0  9 7.5 0  9.5 7.5 0  10 7.5 0  10.5 7.5 0  11 7.5 0  11.5 7.5 0  12 7.5 0  12.5 7.5 0  13 7.5 0  13.5 7.5 0  14 7.5 0  14.5 7.5 0  15 7.5 0  15.5 7.5 0  16 7.5 0  16.5 7.5 0  17 7.5 0  17.5 7.5 0  18 7.5 0  18.5 7.5 0  19 7.5 0  19.5 7.5 0  20 7.5 0  0 8 0  0.5 8 0  1 8 0  1.5 8 0  2 8 0  2.5 8 0  3 8 0  3.5 8 0  4 8 0  4.5 8 0  5 8 0  5.5 8 0  6 8 0  6.5 8 0  7 8 0  7.5 8 0  8 8 0  8.5 8 0  9 8 0  9.5 8 0  10 8 0  10.5 8 0  11 8 0  11.5 8 0  12 8 0  12.5 8 0  13 8 0  13.5 8 0  14 8 0  14.5 8 0  15 8 0  15.5 8 0  16 8 0  16.5 8 0  17 8 0  17.5 8 0  18 8 0  18.5 8 0  19 8 0  19.5 8 0  20 8 0  0 8.5 0  0.5 8.5 0  1 8.5 0  1.5 8.5 0  2 8.5 0  2.5 8.5 0  3 8.5 0  3.5 8.5 0  4 8.5 0  4.5 8.5 0  5 8.5 0  5.5 8.5 0  6 8.5 0  6.5 8.5 0  7 8.5 0  7.5 8.5 0  8 8.5 0  8.5 8.5 0  9 8.5 0  9.5 8.5 0  10 8.5 0  10.5 8.5 0  11 8.5 0  11.5 8.5 0  12 8.5 0  12.5 8.5 0  13 8.5 0  13.5 8.5 0  14 8.5 0  14.5 8.5 0  15 8.5 0  15.5 8.5 0  16 8.5 0  16.5 8.5 0  17 8.5 0  17.5 8.5 0  18 8.5 0  18.5 8.5 0  19 8.5 0  19.5 8.5 0  20 8.5 0  0 9 0  0.5 9 0  1 9 0  1.5 9 0  2 9 0  2.5 9 0  3 9 0  3.5 9 0  4 9 0  4.5 9 0  5 9 0  5.5 9 0  6 9 0  6.5 9 0  7 9 0  7.5 9 0  8 9 0  8.5 9 0  9 9 0  9.5 9 0  10 9 0  10.5 9 0  11 9 0  11.5 9 0  12 9 0  12.5 9 0  13 9 0  13.5 9 0  14 9 0  14.5 9 0  15 9 0  15.5 9 0  16 9 0  16.5 9 0  17 9 0  17.5 9 0  18 9 0  18.5 9 0  19 9 0  19.5 9 0  20 9 0  0 9.5 0  0.5 9.5 0  1 9.5 0  1.5 9.5 0  2 9.5 0  2.5 9.5 0  3 9.5 0  3.5 9.5 0  4 9.5 0  4.5 9.5 0  5 9.5 0  5.5 9.5 0  6 9.5 0  6.5 9.5 0  7 9.5 0  7.5 9.5 0  8 9.5 0  8.5 9.5 0  9 9.5 0  9.5 9.5 0  10 9.5 0  10.5 9.5 0  11 9.5 0  11.5 9.5 0  12 9.5 0  12.5 9.5 0  13 9.5 0  13.5 9.5 0  14 9.5 0  14.5 9.5 0  15 9.5 0  15.5 9.5 0  16 9.5 0  16.5 9.5 0  17 9.5 0  17.5 9.5 0  18 9.5 0  18.5 9.5 0  19 9.5 0  19.5 9.5 0  20 9.5 0  0 10 0  0.5 10 0  1 10 0  1.5 10 0  2 10 0  2.5 10 0  3 10 0  3.5 10 0  4 10 0  4.5 10 0  5 10 0  5.5 10 0  6 10 0  6.5 10 0  7 10 0  7.5 10 0  8 10 0  8.5 10 0  9 10 0  9.5 10 0  10 10 0  10.5 10 0  11 10 0  11.5 10 0  12 10 0  12.5 10 0  13 10 0  13.5 10 0  14 10 0  14.5 10 0  15 10 0  15.5 10 0  16 10 0  16.5 10 0  17 10 0  17.5 10 0  18 10 0  18.5 10 0  19 10 0  19.5 10 0  20 10 0  0 10.5 0  0.5 10.5 0  1 10.5 0  1.5 10.5 0  2 10.5 0  2.5 10.5 0  3 10.5 0  3.5 10.5 0  4 10.5 0  4.5 10.5 0  5 10.5 0  5.5 10.5 0  6 10.5 0  6.5 10.5 0  7 10.5 0  7.5 10.5 0  8 10.5 0  8.5 10.5 0  9 10.5 0  9.5 10.5 0  10 10.5 0  10.5 10.5 0  11 10.5 0  11.5 10.5 0  12 10.5 0  12.5 10.5 0  13 10.5 0  13.5 10.5 0  14 10.5 0  14.5 10.5 0  15 10.5 0  15.5 10.5 0  16 10.5 0  16.5 10.5 0  17 10.5 0  17.5 10.5 0  18 10.5 0  18.5 10.5 0  19 10.5 0  19.5 10.5 0  20 10.5 0  0 11 0  0.5 11 0  1 11 0  1.5 11 0  2 11 0  2.5 11 0  3 11 0  3.5 11 0  4 11 0  4.5 11 0  5 11 0  5.5 11 0  6 11 0  6.5 11 0  7 11 0  7.5 11 0  8 11 0  8.5 11 0  9 11 0  9.5 11 0  10 11 0  10.5 11 0  11 11 0  11.5 11 0  12 11 0  12.5 11 0  13 11 0  13.5 11 0  14 11 0  14.5 11 0  15 11 0  15.5 11 0  16 11 0  16.5 11 0  17 11 0  17.5 11 0  18 11 0  18.5 11 0  19 11 0  19.5 11 0  20 11 0  0 11.5 0  0.5 11.5 0  1 11.5 0  1.5 11.5 0  2 11.5 0  2.5 11.5 0  3 11.5 0  3.5 11.5 0  4 11.5 0  4.5 11.5 0  5 11.5 0  5.5 11.5 0  6 11.5 0  6.5 11.5 0  7 11.5 0  7.5 11.5 0  8 11.5 0  8.5 11.5 0  9 11.5 0  9.5 11.5 0  10 11.5 0  10.5 11.5 0  11 11.5 0  11.5 11.5 0  12 11.5 0  12.5 11.5 0  13 11.5 0  13.5 11.5 0  14 11.5 0  14.5 11.5 0  15 11.5 0  15.5 11.5 0  16 11.5 0  16.5 11.5 0  17 11.5 0  17.5 11.5 0  18 11.5 0  18.5 11.5 0  19 11.5 0  19.5 11.5 0  20 11.5 0  0 12 0  0.5 12 0  1 12 0  1.5 12 0  2 12 0  2.5 12 0  3 12 0  3.5 12 0  4 12 0  4.5 12 0  5 12 0  5.5 12 0  6 12 0  6.5 12 0  7 12 0  7.5 12 0  8 12 0  8.5 12 0  9 12 0  9.5 12 0  10 12 0  10.5 12 0  11 12 0  11.5 12 0  12 12 0  12.5 12 0  13 12 0  13.5 12 0  14 12 0  14.5 12 0  
[...]
<PointData  Vectors="f_5623-0"> 
<DataArray  type="Float64"  Name="f_5623-0"  NumberOfComponents="3" format="ascii">0.0000000000000000e+00 0.0000000000000000e+00 0.0000000000000000e+00  6.4150249077285727e-07 0.0000000000000000e+00 0.0000000000000000e+00  3.2401046934401459e-06 0.0000000000000000e+00 0.0000000000000000e+00  1.0311403705678873e-05 0.0000000000000000e+00 0.0000000000000000e+00  2.4068913242053558e-05 0.0000000000000000e+00 0.0000000000000000e+00  4.6685548156237047e-05 0.0000000000000000e+00 0.0000000000000000e+00  8.0298471811137396e-05 0.0000000000000000e+00 0.0000000000000000e+00  1.2699695675119166e-04 0.0000000000000000e+00 0.0000000000000000e+00  1.8880967769458037e-04 0.0000000000000000e+00 0.0000000000000000e+00  2.6769163383029486e-04 0.0000000000000000e+00 0.0000000000000000e+00  3.6551024549947382e-04 0.0000000000000000e+00 0.0000000000000000e+00  4.8403031040899412e-04 0.0000000000000000e+00 0.0000000000000000e+00  6.2489753382974930e-04 0.0000000000000000e+00 0.0000000000000000e+00  7.8962027672556834e-04 0.0000000000000000e+00 0.0000000000000000e+00  9.7954899509478176e-04 0.0000000000000000e+00 0.0000000000000000e+00  1.1958525296529732e-03 0.0000000000000000e+00 0.0000000000000000e+00  1.4394898638739606e-03 0.0000000000000000e+00 0.0000000000000000e+00  1.7111750669487828e-03 0.0000000000000000e+00 0.0000000000000000e+00  2.0113316733624568e-03 0.0000000000000000e+00 0.0000000000000000e+00  2.3400304205632586e-03 0.0000000000000000e+00 0.0000000000000000e+00  2.6969006373477235e-03 0.0000000000000000e+00 0.0000000000000000e+00  3.0810000428971480e-03 0.0000000000000000e+00 0.0000000000000000e+00  3.4906194750375943e-03 0.0000000000000000e+00 0.0000000000000000e+00  3.9229871007907787e-03 0.0000000000000000e+00 0.0000000000000000e+00  4.3738197968519908e-03 0.0000000000000000e+00 0.0000000000000000e+00  4.8366464394196612e-03 0.0000000000000000e+00 0.0000000000000000e+00  5.3017979598565836e-03 0.0000000000000000e+00 0.0000000000000000e+00  5.7549223027475831e-03 0.0000000000000000e+00 0.0000000000000000e+00  6.1748409286891117e-03 0.0000000000000000e+00 0.0000000000000000e+00  6.5305227640149802e-03 0.0000000000000000e+00 0.0000000000000000e+00  6.7769224770982432e-03 0.0000000000000000e+00 0.0000000000000000e+00  6.8494312136343121e-03 0.0000000000000000e+00 0.0000000000000000e+00  6.6567471145895021e-03 0.0000000000000000e+00 0.0000000000000000e+00  6.0721259603926797e-03 0.0000000000000000e+00 0.0000000000000000e+00  4.9232569748928574e-03 0.0000000000000000e+00 0.0000000000000000e+00  2.9814494076927183e-03 0.0000000000000000e+00 0.0000000000000000e+00  -4.8604872055947850e-05 0.0000000000000000e+00 0.0000000000000000e+00  -4.5366013226986763e-03 0.0000000000000000e+00 0.0000000000000000e+00  -1.0929542394418339e-02 0.0000000000000000e+00 0.0000000000000000e+00  -1.9747215648316312e-02 0.0000000000000000e+00 0.0000000000000000e+00  -3.1567107692159618e-02 0.0000000000000000e+00 0.0000000000000000e+00  0.0000000000000000e+00 6.4150248717783059e-07 0.0000000000000000e+00  -7.6102156286700098e-07 -7.6102156282821280e-07 0.0000000000000000e+00  8.0448166355363679e-07 -4.2430983343233398e-06 0.0000000000000000e+00  6.7954294458712532e-06 -9.8432177166760682e-06 0.0000000000000000e+00  1.9447073644737913e-05 -1.7607046269921436e-05 0.0000000000000000e+00  4.0950594248609439e-05 -2.7526609210324345e-05 0.0000000000000000e+00  7.3450027453579106e-05 -3.9564920240521923e-05 0.0000000000000000e+00  1.1903764004412246e-04 -5.3667951107372479e-05 0.0000000000000000e+00  1.7974421389658986e-04 -6.9768102841825944e-05 0.0000000000000000e+00  2.5752696622332515e-04 -8.7784584784091565e-05 0.0000000000000000e+00  3.5425599350137783e-04 -1.0762278677111093e-04 0.0000000000000000e+00  4.7169936383480653e-04 -1.2917332340715347e-04 0.0000000000000000e+00  6.1150670781288225e-04 -1.5231097378496576e-04 0.0000000000000000e+00  7.7519099389440909e-04 -1.7689360577499613e-04 0.0000000000000000e+00  9.6410797406925707e-04 -2.0276113797732380e-04 0.0000000000000000e+00  1.1794324617195430e-03 -2.2973458524498577e-04 0.0000000000000000e+00  1.4221300586070885e-03 -2.5761523507633838e-04 0.0000000000000000e+00  1.6929220449178393e-03 -2.8618400604042173e-04 0.0000000000000000e+00  1.9922396800255023e-03 -3.1520104445516072e-04 0.0000000000000000e+00  2.3201618299795441e-03 -3.4440562113453166e-04 0.0000000000000000e+00  2.6763262063049030e-03 -3.7351639775280477e-04 0.0000000000000000e+00  3.0597989643952601e-03 -4.0223214246447580e-04 0.0000000000000000e+00  3.4688791629623478e-03 -4.3023299043770316e-04 0.0000000000000000e+00  3.9008026138363586e-03 -4.5718236760070084e-04 0.0000000000000000e+00  4.3512927785660368e-03 -4.8272972888751728e-04 0.0000000000000000e+00  4.8138834151338844e-03 -5.0651430485753885e-04 0.0000000000000000e+00  5.2789077982605516e-03 -5.2817010110373748e-04 0.0000000000000000e+00  5.7320126382665332e-03 -5.4733244242493109e-04 0.0000000000000000e+00  6.1520133858881266e-03 -5.6364637950250104e-04 0.0000000000000000e+00  6.5078669843038565e-03 -5.7677724290206369e-04 0.0000000000000000e+00  6.7545093040114624e-03 -5.8642348415806247e-04 0.0000000000000000e+00  6.8273060395602657e-03 -5.9233160971004914e-04 0.0000000000000000e+00  6.6349253869640041e-03 -5.9431239509271955e-04 0.0000000000000000e+00  6.0505940988316827e-03 -5.9225655919143024e-04 0.0000000000000000e+00  4.9019830155531303e-03 -5.8614657625202956e-04 0.0000000000000000e+00  2.9604074110475311e-03 -5.7605917860400742e-04 0.0000000000000000e+00  -6.9396889260908316e-05 -5.6214993456516610e-04 0.0000000000000000e+00  -4.5570459696016360e-03 -5.4460504052805800e-04 0.0000000000000000e+00  -1.0949507713495140e-02 -5.2352734100722395e-04 0.0000000000000000e+00  -1.9767069292123695e-02 -4.9866000572350614e-04 0.0000000000000000e+00  -3.1591261489123529e-02 -4.6862688373996454e-04 0.0000000000000000e+00  0.0000000000000000e+00 3.2401046932700634e-06 0.0000000000000000e+00  -4.2430983354916447e-06 8.0448166441031215e-07 0.0000000000000000e+00  -6.0484338602564121e-06 -6.0484338602714834e-06 0.0000000000000000e+00  -3.3939273678354405e-06 -1.7271261935248310e-05 0.0000000000000000e+00  5.9221113737734098e-06 -3.2843229217102124e-05 0.0000000000000000e+00  2.4086324086145306e-05 -5.2717546938501579e-05 0.0000000000000000e+00  5.3246641521452813e-05 -7.6818887132505269e-05 0.0000000000000000e+00  9.5500745983489896e-05 -1.0504375769447113e-04 0.0000000000000000e+00  1.5288541322866763e-04 -1.3726127492727806e-04 0.0000000000000000e+00  2.2736474860131793e-04 -1.7331309204480510e-04 0.0000000000000000e+00  3.2081704140674353e-04 -2.1301243222939100e-04 0.0000000000000000e+00  4.3502016519457535e-04 -2.5614251994314664e-04 0.0000000000000000e+00  5.7163537221716825e-04 -3.0245468468799241e-04 0.0000000000000000e+00  7.3218918975263402e-04 -3.5166633532137347e-04 0.0000000000000000e+00  9.1805291844580393e-04 -4.0345895074255634e-04 0.0000000000000000e+00  1.1304188995484900e-03 -4.5747620867493845e-04 0.0000000000000000e+00  1.3702721667377357e-03 -5.1332236730597630e-04 0.0000000000000000e+00  1.6383551908407830e-03 -5.7056101741360271e-04 0.0000000000000000e+00  1.9351219563132364e-03 -6.2871433042342478e-04 0.0000000000000000e+00  2.2606752733128769e-03 -6.8726293887421048e-04 0.0000000000000000e+00  2.6146775931642336e-03 -7.4564660033122276e-04 0.0000000000000000e+00  2.9962200525022816e-03 -8.0326581403100650e-04 0.0000000000000000e+00  3.4036262162579429e-03 -8.5948458453356867e-04 0.0000000000000000e+00  3.8341550074390321e-03 -9.1363455854061759e-04 0.0000000000000000e+00  4.2835504296860043e-03 -9.6502080106747280e-04 0.0000000000000000e+00  4.7453627316458762e-03 -1.0129295212122642e-03 0.0000000000000000e+00  5.2099357929712179e-03 -1.0566380959241243e-03 0.0000000000000000e+00  5.6629188522561756e-03 -1.0954277505667476e-03 0.0000000000000000e+00  6.0831193453538598e-03 -1.1285992020078613e-03 0.0000000000000000e+00  6.4394731488773820e-03 -1.1554913986971706e-03 0.0000000000000000e+00  6.6868799294348075e-03 -1.1755031349681524e-03 0.0000000000000000e+00  6.7606531379758739e-03 -1.1881166976705681e-03 0.0000000000000000e+00  6.5693940189407527e-03 -1.1929217585881834e-03 0.0000000000000000e+00  5.9862524106594596e-03 -1.1896364138002683e-03 0.0000000000000000e+00  4.8388213327632580e-03 -1.1781205466166022e-03 0.0000000000000000e+00  2.8983506612014942e-03 -1.1583743675097897e-03 0.0000000000000000e+00  -1.3046061904129489e-04 -1.1305113389815135e-03 0.0000000000000000e+00  -4.6172195465502231e-03 -1.0946876918400820e-03 0.0000000000000000e+00  -1.1008813067485249e-02 -1.0509563819886083e-03 0.0000000000000000e+00  -1.9825271249025049e-02 -9.9898892809025539e-04 0.0000000000000000e+00  -3.1646944034867924e-02 -9.3760106985925546e-04 0.0000000000000000e+00  0.0000000000000000e+00 1.0311403707947912e-05 0.0000000000000000e+00  -9.8432177168947128e-06 6.7954294465534095e-06 0.0000000000000000e+00  -1.7271261934892190e-05 -3.3939273684189768e-06 0.0000000000000000e+00  -2.0198973282581271e-05 -2.0198973281586675e-05 0.0000000000000000e+00  -1.6452539170489245e-05 -4.3558716258552881e-05 0.0000000000000000e+00  -3.8524870334625637e-06 -7.3386511628063014e-05 0.0000000000000000e+00  1.9749555875733851e-05 -1.0956127705850600e-04 0.0000000000000000e+00  5.6455952824389512e-05 -1.5192577698646423e-04 0.0000000000000000e+00  1.0831118327573846e-04 -2.0028510923137684e-04 0.0000000000000000e+00  1.7728973268583853e-04 -2.5440471721321575e-04 0.0000000000000000e+00  2.6528299704234266e-04 -3.1400798331655523e-04 0.0000000000000000e+00  3.7408486687814252e-04 -3.7877348207081746e-04 0.0000000000000000e+00  5.0537571368803008e-04 -4.4833199881765033e-04 0.0000000000000000e+00  6.6070442998405706e-04 -5.2226344664307097e-04 0.0000000000000000e+00  8.4146799591360206e-04 -6.0009383085477214e-04 0.0000000000000000e+00  1.0488877228095181e-03 -6.8129242115330072e-04 0.0000000000000000e+00  1.2839807754323632e-03 -7.6526930221010444e-04 0.0000000000000000e+00  1.5475246665543820e-03 -8.5137348616539472e-04 0.0000000000000000e+00  1.8400109457136259e-03 -9.3889178596329485e-04 0.0000000000000000e+00  2.1615819655229560e-03 -1.0270486665262220e-03 0.0000000000000000e+00  2.5119409680595130e-03 -1.1150073111880982e-03 0.0000000000000000e+00  2.8902201850940943e-03 -1.2018721645217824e-03 0.0000000000000000e+00  3.2947833832339883e-03 -1.2866932395952852e-03 0.0000000000000000e+00  3.7229272955829518e-03 -1.3684725070122045e-03 0.0000000000000000e+00  4.1704294956805485e-03 -1.4461727119823387e-03 0.0000000000000000e+00  4.6308673190146657e-03 -1.5187289855711024e-03 0.0000000000000000e+00  5.0946025951668960e-03 -1.5850636107470133e-03 0.0000000000000000e+00  5.5472903571590097e-03 -1.6441042453220404e-03 0.0000000000000000e+00  5.9677284589128915e-03 -1.6948057515213714e-03 0.0000000000000000e+00  6.3248247434964221e-03 -1.7361754833787200e-03 0.0000000000000000e+00  6.5734300661584701e-03 -1.7673013858635772e-03 0.0000000000000000e+00  6.6487876126698200e-03 -1.7873815241186961e-03 0.0000000000000000e+00  6.4594090464844978e-03 -1.7957526845634889e-03 0.0000000000000000e+00  5.8783415225040457e-03 -1.7919145067294652e-03 0.0000000000000000e+00  4.7330736294760650e-03 -1.7755442398029850e-03 0.0000000000000000e+00  2.7947661902517785e-03 -1.7464955496269855e-03 0.0000000000000000e+00  -2.3193203562390667e-04 -1.7047723808910973e-03 0.0000000000000000e+00  -4.7166072053277854e-03 -1.6504650124324490e-03 0.0000000000000000e+00  -1.1106003803759002e-02 -1.5836303736935411e-03 0.0000000000000000e+00  -1.9919793624835664e-02 -1.5040969806554001e-03 0.0000000000000000e+00  -3.1737556254948431e-02 -1.4111916853360106e-03 0.0000000000000000e+00  0.0000000000000000e+00 2.4068913244246824e-05 0.0000000000000000e+00  -1.7607046270263445e-05 1.9447073644978142e-05 0.0000000000000000e+00  -3.2843229217653624e-05 5.9221113725474270e-06 0.0000000000000000e+00  -4.3558716258538942e-05 -1.6452539168408109e-05 0.0000000000000000e+00  -4.7588399179945465e-05 -4.7588399179144667e-05 0.0000000000000000e+00  -4.2757866718937523e-05 -8.7363655633809718e-05 0.0000000000000000e+00  -2.6917489837966701e-05 -1.3561457495063164e-04 0.0000000000000000e+00  2.0407859235580358e-06 -1.9213206227943722e-04 0.0000000000000000e+00  4.6170977268746769e-05 -2.5665884623063287e-04 0.0000000000000000e+00  1.0746096381770229e-04 -3.2888629532694006e-04 0.0000000000000000e+00  1.8781957716473247e-04 -4.0845076473763024e-04 0.0000000000000000e+00  2.8906241405564093e-04 -4.9492957994981806e-04 0.0000000000000000e+00  4.1289603732144585e-04 -5.8783679841822151e-04 0.0000000000000000e+00  5.6090017445176816e-04 -6.8661890207431700e-04 0.0000000000000000e+00  7.3450735385082659e-04 -7.9065059113765949e-04 0.0000000000000000e+00  9.3497910090258377e-04 -8.9923087212166340e-04 0.0000000000000000e+00  1.1633772694310477e-03 -1.0115796579368414e-03 0.0000000000000000e+00  1.4205281763562234e-03 -1.1268351236991220e-03 0.0000000000000000e+00  1.7069757341081726e-03 -1.2440520887003704e-03 0.0000000000000000e+00  2.0229174346047363e-03 -1.3622017220964750e-03 0.0000000000000000e+00  2.3681133941982689e-03 -1.4801728970835499e-03 0.0000000000000000e+00  2.7417531164708785e-03 -1.5967755455046954e-03 0.0000000000000000e+00  3.1422563634422637e-03 -1.7107463897214619e-03 0.0000000000000000e+00  3.5669725355048582e-03 -1.8207574486091009e-03 0.0000000000000000e+00  4.0117260808079976e-03 -1.9254277225525646e-03 0.0000000000000000e+00  4.4701325246081364e-03 -2.0233384470634830e-03 0.0000000000000000e+00  4.9325799122191660e-03 -2.1130522456693514e-03 0.0000000000000000e+00  5.3847339460427485e-03 -2.1931363822537174e-03 0.0000000000000000e+00  5.8053839970099485e-03 -2.2621900739144742e-03 0.0000000000000000e+00  6.1634070776317553e-03 -2.3188754392102170e-03 0.0000000000000000e+00  6.4135987718526325e-03 -2.3619510976593161e-03 0.0000000000000000e+00  6.4911225138560378e-03 -2.3903067091825118e-03 0.0000000000000000e+00  6.3043888975886225e-03 -2.4029959035161601e-03 0.0000000000000000e+00  5.7263302265102827e-03 -2.3992642023702901e-03 0.0000000000000000e+00  4.5843192926144933e-03 -2.3785677794385795e-03 0.0000000000000000e+00  2.6494187474454273e-03 -2.3405782285462733e-03 0.0000000000000000e+00  -3.7377896877698220e-04 -2.2851677608035446e-03 0.0000000000000000e+00  -4.8548448704656515e-03 -2.2123684316585892e-03 0.0000000000000000e+00  -1.1240401902442569e-02 -2.1222993834202602e-03 0.0000000000000000e+00  -2.0049851109457943e-02 -2.0150623880578721e-03 0.0000000000000000e+00  -3.1862273727834352e-02 -1.8906320044355042e-03 0.0000000000000000e+00  0.0000000000000000e+00 4.6685548157926200e-05 0.0000000000000000e+00  -2.7526609210036710e-05 4.0950594251681065e-05 0.0000000000000000e+00  -5.2717546939510762e-05 2.4086324086004035e-05 0.0000000000000000e+00  -7.3386511627797235e-05 -3.8524870324792008e-06 0.0000000000000000e+00  -8.7363655630720149e-05 -4.2757866719128607e-05 0.0000000000000000e+00  -9.2477030620425983e-05 -9.2477030624945087e-05 0.0000000000000000e+00  -8.6574941978983193e-05 -1.5280712935555340e-04 0.0000000000000000e+00  -6.7542543428720953e-05 -2.2349080907457848e-04 0.0000000000000000e+00  -3.3314405060750383e-05 -3.0421224053124910e-04 0.0000000000000000e+00  1.8113595117354164e-05 -3.9459279866020257e-04 0.0000000000000000e+00  8.8671710756620096e-05 -4.9418623486026814e-04 0.0000000000000000e+00  1.8020250451286082e-04 -6.0247342047719057e-04 0.0000000000000000e+00  2.9444536144169678e-04 -7.1885681378442334e-04 0.0000000000000000e+00  4.3301890973325419e-04 -8.4265483477728113e-04 0.0000000000000000e+00  5.9740075721958987e-04 -9.7309635798341180e-04 0.0000000000000000e+00  7.8890363464005858e-04 -1.1093155621321505e-03 0.0000000000000000e+00  1.0086464889527062e-03 -1.2503474080451961e-03 0.0000000000000000e+00  1.2575181602633759e-03 -1.3951240512644206e-03 0.0000000000000000e+00  1.5361298008694890e-03 -1.5424725323880575e-03 0.0000000000000000e+00  1.8447498522061493e-03 -1.6911141241951527e-03 0.0000000000000000e+00  2.1832117495934225e-03 -1.8396657486612444e-03 0.0000000000000000e+00  2.5507789716049546e-03 -1.9866439069930438e-03 0.0000000000000000e+00  2.9459437866902441e-03 -2.1304715875960223e-03 0.0000000000000000e+00  3.3661240668398816e-03 -2.2694886253405862e-03 0.0000000000000000e+00  3.8072056759381910e-03 -2.4019659706429656e-03 0.0000000000000000e+00  4.2628550445530117e-03 -2.5261242751172734e-03 0.0000000000000000e+00  4.7234968063423546e-03 -2.6401570912677531e-03 0.0000000000000000e+00  5.1748149546089958e-03 -2.7422587910893416e-03 0.0000000000000000e+00  5.5955950181798353e-03 -2.8306570051578614e-03 0.0000000000000000e+00  5.9546848473460085e-03 -2.9036489488554573e-03 0.0000000000000000e+00  6.2068237201447921e-03 -2.9596404393054687e-03 0.0000000000000000e+00  6.2870920709024603e-03 -2.9971857621095329e-03 0.0000000000000000e+00  6.1037945334635182e-03 -3.0150259282453072e-03 0.0000000000000000e+00  5.5297424254180088e-03 -3.0121224257481814e-03 0.0000000000000000e+00  4.3921851899381571e-03 -2.9876834708342970e-03 0.0000000000000000e+00  2.4620769479882470e-03 -2.9411800491695311e-03 0.0000000000000000e+00  -5.5606315341273898e-04 -2.8723496227540612e-03 0.0000000000000000e+00  -5.0318231202920588e-03 -2.7811862977391655e-03 0.0000000000000000e+00  -1.1411768471638627e-02 -2.6679185639382195e-03 0.0000000000000000e+00  -2.0215153966409355e-02 -2.5329835079254165e-03 0.0000000000000000e+00  -3.2020797979393154e-02 -2.3770324110800743e-03 0.0000000000000000e+00  0.0000000000000000e+00 8.0298471810766369e-05 0.0000000000000000e+00  -3.9564920239447526e-05 7.3450027452147228e-05 0.0000000000000000e+00  -7.6818887129927741e-05 5.3246641520862018e-05 0.0000000000000000e+00  -1.0956127705609851e-04 1.9749555875915427e-05 0.0000000000000000e+00  -1.3561457494937613e-04 -2.6917489841090301e-05 0.0000000000000000e+00  -1.5280712935484238e-04 -8.6574941979441038e-05 0.0000000000000000e+00  -1.5898477907491486e-04 -1.5898477907239498e-04 0.0000000000000000e+00  -1.5202532395996600e-04 -2.4384571824295344e-04 0.0000000000000000e+00  -1.2985059887932093e-04 -3.4078823375759088e-04 0.0000000000000000e+00  -9.0437924668823784e-05 -4.4936909581032281e-04 0.0000000000000000e+00  -3.1832166674462998e-05 -5.6906532495708045e-04 0.0000000000000000e+00  4.7840936360585710e-05 -6.9926763640046873e-04 0.0000000000000000e+00  1.5035971109631389e-04 -8.3927353337186444e-04 0.0000000000000000e+00  2.7738928259430609e-04 -9.8828025620746282e-04 0.0000000000000000e+00  4.3046147174792033e-04 -1.1453778319402024e-03 0.0000000000000000e+00  6.1095091058860395e-04 -1.3095425082649426e-03 0.0000000000000000e+00  8.2004587909546324e-04 -1.4796308982000103e-03 0.0000000000000000e+00  1.0587114550035879e-03 -1.6543752065007618e-03 0.0000000000000000e+00  1.3276410906298446e-03 -1.8323799556277851e-03 0.0000000000000000e+00  1.6271903867098045e-03 -2.0121206741655876e-03 0.0000000000000000e+00  1.9572831876263322e-03 -2.1919450524322615e-03 0.0000000000000000e+00  2.3172745725262766e-03 -2.3700771035600329e-03 0.0000000000000000e+00  2.7057470604860143e-03 -2.5446248885223374e-03 0.0000000000000000e+00  3.1202043807247448e-03 -2.7135923621566089e-03 0.0000000000000000e+00  3.5566103244242409e-03 -2.8748958628332650e-03 0.0000000000000000e+00  4.0086973448714780e-03 -3.0263856855208670e-03 0.0000000000000000e+00  4.4669399070133807e-03 -3.1658730277890519e-03 0.0000000000000000e+00  4.9170512731455561e-03 -3.2911623588621182e-03 0.0000000000000000e+00  5.3378215880083221e-03 -3.4000889165841891e-03 0.0000000000000000e+00  5.6980753797953995e-03 -3.4905605831009757e-03 0.0000000000000000e+00  5.9524988773497533e-03 -3.5606028568955362e-03 0.0000000000000000e+00  6.0360902540345009e-03 -3.6084051077712731e-03 0.0000000000000000e+00  5.8570462990764887e-03 -3.6323659161848799e-03 0.0000000000000000e+00  5.2880522393412956e-03 -3.6311352492358487e-03 0.0000000000000000e+0