<?xml version="1.0"?>
<VTKFile type="UnstructuredGrid"  version="0.1"  >
<UnstructuredGrid>
<Piece  NumberOfPoints="1681" NumberOfCells="3200">
<Points>
<DataArray  type="Float64"  NumberOfComponents="3"  format="ascii">0 0 0  0.5 0 0  1 0 0  1.5 0 0  2 0 0  2.5 0 0  3 0 0  3.5 0 0  4 0 0  4.5 0 0  5 0 0  5.5 0 0  6 0 0  6.5 0 0  7 0 0  7.5 0 0  8 0 0  8.5 0 0  9 0 0  9.5 0 0  10 0 0  10.5 0 0  11 0 0  11.5 0 0  12 0 0  12.5 0 0  13 0 0  13.5 0 0  14 0 0  14.5 0 0  15 0 0  15.5 0 0  16 0 0  16.5 0 0  17 0 0  17.5 0 0  18 0 0  18.5 0 0  19 0 0  19.5 0 0  20 0 0  0 0.5 0  0.5 0.5 0  1 0.5 0  1.5 0.5 0  2 0.5 0  2.5 0.5 0  3 0.5 0  3.5 0.5 0  4 0.5 0  4.5 0.5 0  5 0.5 0  5.5 0.5 0  6 0.5 0  6.5 0.5 0  7 0.5 0  7.5 0.5 0  8 0.5 0  8.5 0.5 0  9 0.5 0  9.5 0.5 0  10 0.5 0  10.5 0.5 0  11 0.5 0  11.5 0.5 0  12 0.5 0  12.5 0.5 0  13 0.5 0  13.5 0.5 0  14 0.5 0  14.5 0.5 0  15 0.5 0  15.5 0.5 0  16 0.5 0  16.5 0.5 0  17 0.5 0  17.5 0.5 0  18 0.5 0  18.5 0.5 0  19 0.5 0  19.5 0.5 0  20 0.5 0  0 1 0  0.5 1 0  1 1 0  1.5 1 0  2 1 0  2.5 1 0  3 1 0  3.5 1 0  4 1 0  4.5 1 0  5 1 0  5.5 1 0  6 1 0  6.5 1 0  7 1 0  7.5 1 0  8 1 0  8.5 1 0  9 1 0  9.5 1 0  10 1 0  10.5 1 0  11 1 0  11.5 1 0  12 1 0  12.5 1 0  13 1 0  13.5 1 0  14 1 0  14.5 1 0  15 1 0  15.5 1 0  16 1 0  16.5 1 0  17 1 0  17.5 1 0  18 1 0  18.5 1 0  19 1 0  19.5 1 0  20 1 0  0 1.5 0  0.5 1.5 0  1 1.5 0  1.5 1.5 0  2 1.5 0  2.5 1.5 0  3 1.5 0  3.5 1.5 0  4 1.5 0  4.5 1.5 0  5 1.5 0  5.5 1.5 0  6 1.5 0  6.5 1.5 0  7 1.5 0  7.5 1.5 0  8 1.5 0  8.5 1.5 0  9 1.5 0  9.5 1.5 0  10 1.5 0  10.5 1.5 0  11 1.5 0  11.5 1.5 0  12 1.5 0  12.5 1.5 0  13 1.5 0  13.5 1.5 0  14 1.5 0  14.5 1.5 0  15 1.5 0  15.5 1.5 0  16 1.5 0  16.5 1.5 0  17 1.5 0  17.5 1.5 0  18 1.5 0  18.5 1.5 0  19 1.5 0  19.5 1.5 0  20 1.5 0  0 2 0  0.5 2 0  1 2 0  1.5 2 0  2 2 0  2.5 2 0  3 2 0  3.5 2 0  4 2 0  4.5 2 0  5 2 0  5.5 2 0  6 2 0  6.5 2 0  7 2 0  7.5 2 0  8 2 0  8.5 2 0  9 2 0  9.5 2 0  10 2 0  10.5 2 0  11 2 0  11.5 2 0  12 2 0  12.5 2 0  13 2 0  13.5 2 0  14 2 0  14.5 2 0  15 2 0  15.5 2 0  16 2 0  16.5 2 0  17 2 0  17.5 2 0  18 2 0  18.5 2 0  19 2 0  19.5 2 0  20 2 0  0 2.5 0  0.5 2.5 0  1 2.5 0  1.5 2.5 0  2 2.5 0  2.5 2.5 0  3 2.5 0  3.5 2.5 0  4 2.5 0  4.5 2.5 0  5 2.5 0  5.5 2.5 0  6 2.5 0  6.5 2.5 0  7 2.5 0  7.5 2.5 0  8 2.5 0  8.5 2.5 0  9 2.5 0  9.5 2.5 0  10 2.5 0  10.5 2.5 0  11 2.5 0  11.5 2.5 0  12 2.5 0  12.5 2.5 0  13 2.5 0  13.5 2.5 0  14 2.5 0  14.5 2.5 0  15 2.5 0  15.5 2.5 0  16 2.5 0  16.5 2.5 0  17 2.5 0  17.5 2.5 0  18 2.5 0  18.5 2.5 0  19 2.5 0  19.5 2.5 0  20 2.5 0  0 3 0  0.5 3 0  1 3 0  1.5 3 0  2 3 0  2.5 3 0  3 3 0  3.5 3 0  4 3 0  4.5 3 0  5 3 0  5.5 3 0  6 3 0  6.5 3 0  7 3 0  7.5 3 0  8 3 0  8.5 3 0  9 3 0  9.5 3 0  10 3 0  10.5 3 0  11 3 0  11.5 3 0  12 3 0  12.5 3 0  13 3 0  13.5 3 0  14 3 0  14.5 3 0  15 3 0  15.5 3 0  16 3 0  16.5 3 0  17 3 0  17.5 3 0  18 3 0  18.5 3 0  19 3 0  19.5 3 0  20 3 0  0 3.5 0  0.5 3.5 0  1 3.5 0  1.5 3.5 0  2 3.5 0  2.5 3.5 0  3 3.5 0  3.5 3.5 0  4 3.5 0  4.5 3.5 0  5 3.5 0  5.5 3.5 0  6 3.5 0  6.5 3.5 0  7 3.5 0  7.5 3.5 0  8 3.5 0  8.5 3.5 0  9 3.5 0  9.5 3.5 0  10 3.5 0  10.5 3.5 0  11 3.5 0  11.5 3.5 0  12 3.5 0  12.5 3.5 0  13 3.5 0  13.5 3.5 0  14 3.5 0  14.5 3.5 0  15 3.5 0  15.5 3.5 0  16 3.5 0  16.5 3.5 0  17 3.5 0  17.5 3.5 0  18 3.5 0  18.5 3.5 0  19 3.5 0  19.5 3.5 0  20 3.5 0  0 4 0  0.5 4 0  1 4 0  1.5 4 0  2 4 0  2.5 4 0  3 4 0  3.5 4 0  4 4 0  4.5 4 0  5 4 0  5.5 4 0  6 4 0  6.5 4 0  7 4 0  7.5 4 0  8 4 0  8.5 4 0  9 4 0  9.5 4 0  10 4 0  10.5 4 0  11 4 0  11.5 4 0  12 4 0  12.5 4 0  13 4 0  13.5 4 0  14 4 0  14.5 4 0  15 4 0  15.5 4 0  16 4 0  16.5 4 0  17 4 0  17.5 4 0  18 4 0  18.5 4 0  19 4 0  19.5 4 0  20 4 0  0 4.5 0  0.5 4.5 0  1 4.5 0  1.5 4.5 0  2 4.5 0  2.5 4.5 0  3 4.5 0  3.5 4.5 0  4 4.5 0  4.5 4.5 0  5 4.5 0  5.5 4.5 0  6 4.5 0  6.5 4.5 0  7 4.5 0  7.5 4.5 0  8 4.5 0  8.5 4.5 0  9 4.5 0  9.5 4.5 0  10 4.5 0  10.5 4.5 0  11 4.5 0  11.5 4.5 0  12 4.5 0  12.5 4.5 0  13 4.5 0  13.5 4.5 0  14 4.5 0  14.5 4.5 0  15 4.5 0  15.5 4.5 0  16 4.5 0  16.5 4.5 0  17 4.5 0  17.5 4.5 0  18 4.5 0  18.5 4.5 0  19 4.5 0  19.5 4.5 0  20 4.5 0  0 5 0  0.5 5 0  1 5 0  1.5 5 0  2 5 0  2.5 5 0  3 5 0  3.5 5 0  4 5 0  4.5 5 0  5 5 0  5.5 5 0  6 5 0  6.5 5 0  7 5 0  7.5 5 0  8 5 0  8.5 5 0  9 5 0  9.5 5 0  10 5 0  10.5 5 0  11 5 0  11.5 5 0  12 5 0  12.5 5 0  13 5 0  13.5 5 0  14 5 0  14.5 5 0  15 5 0  15.5 5 0  16 5 0  16.5 5 0  17 5 0  17.5 5 0  18 5 0  18.5 5 0  19 5 0  19.5 5 0  20 5 0  0 5.5 0  0.5 5.5 0  1 5.5 0  1.5 5.5 0  2 5.5 0  2.5 5.5 0  3 5.5 0  3.5 5.5 0  4 5.5 0  4.5 5.5 0  5 5.5 0  5.5 5.5 0  6 5.5 0  6.5 5.5 0  7 5.5 0  7.5 5.5 0  8 5.5 0  8.5 5.5 0  9 5.5 0  9.5 5.5 0  10 5.5 0  10.5 5.5 0  11 5.5 0  11.5 5.5 0  12 5.5 0  12.5 5.5 0  13 5.5 0  13.5 5.5 0  14 5.5 0  14.5 5.5 0  15 5.5 0  15.5 5.5 0  16 5.5 0  16.5 5.5 0  17 5.5 0  17.5 5.5 0  18 5.5 0  18.5 5.5 0  19 5.5 0  19.5 5.5 0  20 5.5 0  0 6 0  0.5 6 0  1 6 0  1.5 6 0  2 6 0  2.5 6 0  3 6 0  3.5 6 0  4 6 0  4.5 6 0  5 6 0  5.5 6 0  6 6 0  6.5 6 0  7 6 0  7.5 6 0  8 6 0  8.5 6 0  9 6 0  9.5 6 0  10 6 0  10.5 6 0  11 6 0  11.5 6 0  12 6 0  12.5 6 0  13 6 0  13.5 6 0  14 6 0  14.5 6 0  15 6 0  15.5 6 0  16 6 0  16.5 6 0  17 6 0  17.5 6 0  18 6 0  18.5 6 0  19 6 0  19.5 6 0  20 6 0  0 6.5 0  0.5 6.5 0  1 6.5 0  1.5 6.5 0  2 6.5 0  2.5 6.5 0  3 6.5 0  3.5 6.5 0  4 6.5 0  4.5 6.5 0  5 6.5 0  5.5 6.5 0  6 6.5 0  6.5 6.5 0  7 6.5 0  7.5 6.5 0  8 6.5 0  8.5 6.5 0  9 6.5 0  9.5 6.5 0  10 6.5 0  10.5 6.5 0  11 6.5 0  11.5 6.5 0  12 6.5 0  12.5 6.5 0  13 6.5 0  13.5 6.5 0  14 6.5 0  14.5 6.5 0  15 6.5 0  15.5 6.5 0  16 6.5 0  16.5 6.5 0  17 6.5 0  17.5 6.5 0  18 6.5 0  18.5 6.5 0  19 6.5 0  19.5 6.5 0  20 6.5 0  0 7 0  0.5 7 0  1 7 0  1.5 7 0  2 7 0  2.5 7 0  3 7 0  3.5 7 0  4 7 0  4.5 7 0  5 7 0  5.5 7 0  6 7 0  6.5 7 0  7 7 0  7.5 7 0  8 7 0  8.5 7 0  9 7 0  9.5 7 0  10 7 0  10.5 7 0  11 7 0  11.5 7 0  12 7 0  12.5 7 0  13 7 0  13.5 7 0  14 7 0  14.5 7 0  15 7 0  15.5 7 0  16 7 0  16.5 7 0  17 7 0  17.5 7 0  18 7 0  18.5 7 0  19 7 0  19.5 7 0  20 7 0  0 7.5 0  0.5 7.5 0  1 7.5 0  1.5 7.5 0  2 7.5 0  2.5 7.5 0  3 7.5 0  3.5 7.5 0  4 7.5 0  4.5 7.5 0  5 7.5 0  5.5 7.5 0  6 7.5 0  6.5 7.5 0  7 7.5 0  7.5 7.5 0  8 7.5 0  8.5 7.5 0  9 7.5 0  9.5 7.5 0  10 7.5 0  10.5 7.5 0  11 7.5 0  11.5 7.5 0  12 7.5 0  12.5 7.5 0  13 7.5 0  13.5 7.5 0  14 7.5 0  14.5 7.5 0  15 7.5 0  15.5 7.5 0  16 7.5 0  16.5 7.5 0  17 7.5 0  17.5 7.5 0  18 7.5 0  18.5 7.5 0  19 7.5 0  19.5 7.5 0  20 7.5 0  0 8 0  0.5 8 0  1 8 0  1.5 8 0  2 8 0  2.5 8 0  3 8 0  3.5 8 0  4 8 0  4.5 8 0  5 8 0  5.5 8 0  6 8 0  6.5 8 0  7 8 0  7.5 8 0  8 8 0  8.5 8 0  9 8 0  9.5 8 0  10 8 0  10.5 8 0  11 8 0  11.5 8 0  12 8 0  12.5 8 0  13 8 0  13.5 8 0  14 8 0  14.5 8 0  15 8 0  15.5 8 0  16 8 0  16.5 8 0  17 8 0  17.5 8 0  18 8 0  18.5 8 0  19 8 0  19.5 8 0  20 8 0  0 8.5 0  0.5 8.5 0  1 8.5 0  1.5 8.5 0  2 8.5 0  2.5 8.5 0  3 8.5 0  3.5 8.5 0  4 8.5 0  4.5 8.5 0  5 8.5 0  5.5 8.5 0  6 8.5 0  6.5 8.5 0  7 8.5 0  7.5 8.5 0  8 8.5 0  8.5 8.5 0  9 8.5 0  9.5 8.5 0  10 8.5 0  10.5 8.5 0  11 8.5 0  11.5 8.5 0  12 8.5 0  12.5 8.5 0  13 8.5 0  13.5 8.5 0  14 8.5 0  14.5 8.5 0  15 8.5 0  15.5 8.5 0  16 8.5 0  16.5 8.5 0  17 8.5 0  17.5 8.5 0  18 8.5 0  18.5 8.5 0  19 8.5 0  19.5 8.5 0  20 8.5 0  0 9 0  0.5 9 0  1 9 0  1.5 9 0  2 9 0  2.5 9 0  3 9 0  3.5 9 0  4 9 0  4.5 9 0  5 9 0  5.5 9 0  6 9 0  6.5 9 0  7 9 0  7.5 9 0  8 9 0  8.5 9 0  9 9 0  9.5 9 0  10 9 0  10.5 9 0  11 9 0  11.5 9 0  12 9 0  12.5 9 0  13 9 0  13.5 9 0  14 9 0  14.5 9 0  15 9 0  15.5 9 0  16 9 0  16.5 9 0  17 9 0  17.5 9 0  18 9 0  18.5 9 0  19 9 0  19.5 9 0  20 9 0  0 9.5 0  0.5 9.5 0  1 9.5 0  1.5 9.5 0  2 9.5 0  2.5 9.5 0  3 9.5 0  3.5 9.5 0  4 9.5 0  4.5 9.5 0  5 9.5 0  5.5 9.5 0  6 9.5 0  6.5 9.5 0  7 9.5 0  7.5 9.5 0  8 9.5 0  8.5 9.5 0  9 9.5 0  9.5 9.5 0  10 9.5 0  10.5 9.5 0  11 9.5 0  11.5 9.5 0  12 9.5 0  12.5 9.5 0  13 9.5 0  13.5 9.5 0  14 9.5 0  14.5 9.5 0  15 9.5 0  15.5 9.5 0  16 9.5 0  16.5 9.5 0  17 9.5 0  17.5 9.5 0  18 9.5 0  18.5 9.5 0  19 9.5 0  19.5 9.5 0  20 9.5 0  0 10 0  0.5 10 0  1 10 0  1.5 10 0  2 10 0  2.5 10 0  3 10 0  3.5 10 0  4 10 0  4.5 10 0  5 10 0  5.5 10 0  6 10 0  6.5 10 0  7 10 0  7.5 10 0  8 10 0  8.5 10 0  9 10 0  9.5 10 0  10 10 0  10.5 10 0  11 10 0  11.5 10 0  12 10 0  12.5 10 0  13 10 0  13.5 10 0  14 10 0  14.5 10 0  15 10 0  15.5 10 0  16 10 0  16.5 10 0  17 10 0  17.5 10 0  18 10 0  18.5 10 0  19 10 0  19.5 10 0  20 10 0  0 10.5 0  0.5 10.5 0  1 10.5 0  1.5 10.5 0  2 10.5 0  2.5 10.5 0  3 10.5 0  3.5 10.5 0  4 10.5 0  4.5 10.5 0  5 10.5 0  5.5 10.5 0  6 10.5 0  6.5 10.5 0  7 10.5 0  7.5 10.5 0  8 10.5 0  8.5 10.5 0  9 10.5 0  9.5 10.5 0  10 10.5 0  10.5 10.5 0  11 10.5 0  11.5 10.5 0  12 10.5 0  12.5 10.5 0  13 10.5 0  13.5 10.5 0  14 10.5 0  14.5 10.5 0  15 10.5 0  15.5 10.5 0  16 10.5 0  16.5 10.5 0  17 10.5 0  17.5 10.5 0  18 10.5 0  18.5 10.5 0  19 10.5 0  19.5 10.5 0  20 10.5 0  0 11 0  0.5 11 0  1 11 0  1.5 11 0  2 11 0  2.5 11 0  3 11 0  3.5 11 0  4 11 0  4.5 11 0  5 11 0  5.5 11 0  6 11 0  6.5 11 0  7 11 0  7.5 11 0  8 11 0  8.5 11 0  9 11 0  9.5 11 0  10 11 0  10.5 11 0  11 11 0  11.5 11 0  12 11 0  12.5 11 0  13 11 0  13.5 11 0  14 11 0  14.5 11 0  15 11 0  15.5 11 0  16 11 0  16.5 11 0  17 11 0  17.5 11 0  18 11 0  18.5 11 0  19 11 0  19.5 11 0  20 11 0  0 11.5 0  0.5 11.5 0  1 11.5 0  1.5 11.5 0  2 11.5 0  2.5 11.5 0  3 11.5 0  3.5 11.5 0  4 11.5 0  4.5 11.5 0  5 11.5 0  5.5 11.5 0  6 11.5 0  6.5 11.5 0  7 11.5 0  7.5 11.5 0  8 11.5 0  8.5 11.5 0  9 11.5 0  9.5 11.5 0  10 11.5 0  10.5 11.5 0  11 11.5 0  11.5 11.5 0  12 11.5 0  12.5 11.5 0  13 11.5 0  13.5 11.5 0  14 11.5 0  14.5 11.5 0  15 11.5 0  15.5 11.5 0  16 11.5 0  16.5 11.5 0  17 11.5 0  17.5 11.5 0  18 11.5 0  18.5 11.5 0  19 11.5 0  19.5 11.5 0  20 11.5 0  0 12 0  0.5 12 0  1 12 0  1.5 12 0  2 12 0  2.5 12 0  3 12 0  3.5 12 0  4 12 0  4.5 12 0  5 12 0  5.5 12 0  6 12 0  6.5 12 0  7 12 0  7.5 12 0  8 12 0  8.5 12 0  9 12 0  9.5 12 0  10 12 0  10.5 12 0  11 12 0  11.5 12 0  12 12 0  12.5 12 0  13 12 0  13.5 12 0  14 12 0  14.5 12 0  
[...]
<PointData  Vectors="f_5623-0"> 
<DataArray  type="Float64"  Name="f_5623-0"  NumberOfComponents="3" format="ascii">0.0000000000000000e+00 0.0000000000000000e+00 0.0000000000000000e+00  1.6640549042754667e-06 0.0000000000000000e+00 0.0000000000000000e+00  1.3232024887405087e-05 0.0000000000000000e+00 0.0000000000000000e+00  4.8531751639051218e-05 0.0000000000000000e+00 0.0000000000000000e+00  1.1929770649507954e-04 0.0000000000000000e+00 0.0000000000000000e+00  2.3687312755365941e-04 0.0000000000000000e+00 0.0000000000000000e+00  4.1221601544877266e-04 0.0000000000000000e+00 0.0000000000000000e+00  6.5576437224583786e-04 0.0000000000000000e+00 0.0000000000000000e+00  9.7727197690674933e-04 0.0000000000000000e+00 0.0000000000000000e+00  1.3856121950170761e-03 0.0000000000000000e+00 0.0000000000000000e+00  1.8885396312314890e-03 0.0000000000000000e+00 0.0000000000000000e+00  2.4923982819574125e-03 0.0000000000000000e+00 0.0000000000000000e+00  3.2017633178280640e-03 0.0000000000000000e+00 0.0000000000000000e+00  4.0190017010302889e-03 0.0000000000000000e+00 0.0000000000000000e+00  4.9437347681132110e-03 0.0000000000000000e+00 0.0000000000000000e+00  5.9721838851546066e-03 0.0000000000000000e+00 0.0000000000000000e+00  7.0963785406454221e-03 0.0000000000000000e+00 0.0000000000000000e+00  8.3032050959104750e-03 0.0000000000000000e+00 0.0000000000000000e+00  9.5732742893949244e-03 0.0000000000000000e+00 0.0000000000000000e+00  1.0879587051872544e-02 0.0000000000000000e+00 0.0000000000000000e+00  1.2185981948114842e-02 0.0000000000000000e+00 0.0000000000000000e+00  1.3445354481528024e-02 0.0000000000000000e+00 0.0000000000000000e+00  1.4597649568876291e-02 0.0000000000000000e+00 0.0000000000000000e+00  1.5567644742041198e-02 0.0000000000000000e+00 0.0000000000000000e+00  1.6262563985546555e-02 0.0000000000000000e+00 0.0000000000000000e+00  1.6569591130103666e-02 0.0000000000000000e+00 0.0000000000000000e+00  1.6353387220500799e-02 0.0000000000000000e+00 0.0000000000000000e+00  1.5453756864947934e-02 0.0000000000000000e+00 0.0000000000000000e+00  1.3683651099937393e-02 0.0000000000000000e+00 0.0000000000000000e+00  1.0827733395100160e-02 0.0000000000000000e+00 0.0000000000000000e+00  6.6417633381800111e-03 0.0000000000000000e+00 0.0000000000000000e+00  8.5305965869571752e-04 0.0000000000000000e+00 0.0000000000000000e+00  -6.8377195158608756e-03 0.0000000000000000e+00 0.0000000000000000e+00  -1.6753303970019520e-02 0.0000000000000000e+00 0.0000000000000000e+00  -2.9234975306461620e-02 0.0000000000000000e+00 0.0000000000000000e+00  -4.4636235681378318e-02 0.0000000000000000e+00 0.0000000000000000e+00  -6.3315203916114352e-02 0.0000000000000000e+00 0.0000000000000000e+00  -8.5626087441128498e-02 0.0000000000000000e+00 0.0000000000000000e+00  -1.1191004864527736e-01 0.0000000000000000e+00 0.0000000000000000e+00  -1.4248503703153279e-01 0.0000000000000000e+00 0.0000000000000000e+00  -1.7763122012964011e-01 0.0000000000000000e+00 0.0000000000000000e+00  0.0000000000000000e+00 1.6640549018373040e-06 0.0000000000000000e+00  -6.3233481979878728e-06 -6.3233481967767631e-06 0.0000000000000000e+00  -2.8963616134052740e-07 -2.5605870889284743e-05 0.0000000000000000e+00  2.9176718231404120e-05 -5.6353976482805199e-05 0.0000000000000000e+00  9.3927225800443417e-05 -9.8880635352939546e-05 0.0000000000000000e+00  2.0542411211345540e-04 -1.5318247998289896e-04 0.0000000000000000e+00  3.7467352612241268e-04 -2.1907992579471604e-04 0.0000000000000000e+00  6.1213486528205918e-04 -2.9629303498446941e-04 0.0000000000000000e+00  9.2757541555100163e-04 -3.8446612124088601e-04 0.0000000000000000e+00  1.3298807998032868e-03 -4.8317275993145238e-04 0.0000000000000000e+00  1.8268190836067469e-03 -5.9191414625487803e-04 0.0000000000000000e+00  2.4247499482640622e-03 -7.1011516844684099e-04 0.0000000000000000e+00  3.1282669464821515e-03 -8.3711965856748396e-04 0.0000000000000000e+00  3.9397583386772501e-03 -9.7218538598657894e-04 0.0000000000000000e+00  4.8588697408898825e-03 -1.1144790959634321e-03 0.0000000000000000e+00  5.8818497241343920e-03 -1.2630718288455954e-03 0.0000000000000000e+00  7.0007577380643872e-03 -1.4169347529616565e-03 0.0000000000000000e+00  8.2025125772165839e-03 -1.5749357639232016e-03 0.0000000000000000e+00  9.4677594831988777e-03 -1.7358371328817686e-03 0.0000000000000000e+00  1.0769535440574428e-02 -1.8982945203719825e-03 0.0000000000000000e+00  1.2071715990460591e-02 -2.0608577086514762e-03 0.0000000000000000e+00  1.3327233818648839e-02 -2.2219734412551738e-03 0.0000000000000000e+00  1.4476070460488965e-02 -2.3799907908439786e-03 0.0000000000000000e+00  1.5443038732088623e-02 -2.5331694998916524e-03 0.0000000000000000e+00  1.6135395865257061e-02 -2.6796917471821986e-03 0.0000000000000000e+00  1.6440356346917848e-02 -2.8176777757021100e-03 0.0000000000000000e+00  1.6222608961223437e-02 -2.9452057630806609e-03 0.0000000000000000e+00  1.5321983102119265e-02 -3.0603362090130377e-03 0.0000000000000000e+00  1.3551451903901942e-02 -3.1611409418913841e-03 0.0000000000000000e+00  1.0695698747605476e-02 -3.2457365974355480e-03 0.0000000000000000e+00  6.5105015004604042e-03 -3.3123220941886195e-03 0.0000000000000000e+00  7.2319581048697391e-04 -3.3592192375143173e-03 0.0000000000000000e+00  -6.9655451918378573e-03 -3.3849151644257552e-03 0.0000000000000000e+00  -1.6878440462616062e-02 -3.3881049689072039e-03 0.0000000000000000e+00  -2.9356770574868508e-02 -3.3677326256355620e-03 0.0000000000000000e+00  -4.4754059483696158e-02 -3.3230282949740365e-03 0.0000000000000000e+00  -6.3428503618191329e-02 -3.2535395870026290e-03 0.0000000000000000e+00  -8.5734544624377629e-02 -3.1591490729993262e-03 0.0000000000000000e+00  -1.1201412854409831e-01 -3.0400403608411937e-03 0.0000000000000000e+00  -1.4258844642513635e-01 -2.8964436830599075e-03 0.0000000000000000e+00  -1.7775239316395641e-01 -2.7275876616366505e-03 0.0000000000000000e+00  0.0000000000000000e+00 1.3232024887247687e-05 0.0000000000000000e+00  -2.5605870890032933e-05 -2.8963616016075509e-07 0.0000000000000000e+00  -3.8040426556123731e-05 -3.8040426556818447e-05 0.0000000000000000e+00  -2.6800706654523130e-05 -9.9641959720379899e-05 0.0000000000000000e+00  1.9731189277021443e-05 -1.8498384522268083e-04 0.0000000000000000e+00  1.1297858237482080e-04 -2.9383472776629355e-04 0.0000000000000000e+00  2.6396689771704038e-04 -4.2581119100095209e-04 0.0000000000000000e+00  4.8318521170534929e-04 -5.8037567327117812e-04 0.0000000000000000e+00  7.8043268300474430e-04 -7.5684172217770226e-04 0.0000000000000000e+00  1.1646298815982125e-03 -9.5437615680445576e-04 0.0000000000000000e+00  1.6435849397534697e-03 -1.1719964805366244e-03 0.0000000000000000e+00  2.2237043969582627e-03 -1.4085647703869536e-03 0.0000000000000000e+00  2.9096366130907337e-03 -1.6627794672756039e-03 0.0000000000000000e+00  3.7038333374746638e-03 -1.9331661286057877e-03 0.0000000000000000e+00  4.6060127449159402e-03 -2.2180679031727430e-03 0.0000000000000000e+00  5.6125051179750050e-03 -2.5156363281275021e-03 0.0000000000000000e+00  6.7154605567874125e-03 -2.8238229900869240e-03 0.0000000000000000e+00  7.9018969243512347e-03 -3.1403725936456888e-03 0.0000000000000000e+00  9.1525661009447309e-03 -3.4628180150632830e-03 0.0000000000000000e+00  1.0440618082893800e-02 -3.7884779710448892e-03 0.0000000000000000e+00  1.1730046229206670e-02 -4.1144579943675555e-03 0.0000000000000000e+00  1.2973903898772544e-02 -4.4376554733512137e-03 0.0000000000000000e+00  1.4112293816432477e-02 -4.7547695749492998e-03 0.0000000000000000e+00  1.5070147787286841e-02 -5.0623169237939570e-03 0.0000000000000000e+00  1.5754836762734044e-02 -5.3566539410461354e-03 0.0000000000000000e+00  1.6053680302864946e-02 -5.6340067415784163e-03 0.0000000000000000e+00  1.5831459994031991e-02 -5.8905094253839021e-03 0.0000000000000000e+00  1.4928081963538667e-02 -6.1222514512691605e-03 0.0000000000000000e+00  1.3156576118504241e-02 -6.3253345183143092e-03 0.0000000000000000e+00  1.0301658739171949e-02 -6.4959389708117371e-03 0.0000000000000000e+00  6.1191128266087167e-03 -6.6303991637901832e-03 0.0000000000000000e+00  3.3624750013253854e-04 -6.7252864744907787e-03 0.0000000000000000e+00  -7.3463263792006113e-03 -6.7774977467389419e-03 0.0000000000000000e+00  -1.7251430529134495e-02 -6.7843459588160602e-03 0.0000000000000000e+00  -2.9720495371961513e-02 -6.7436488196178663e-03 0.0000000000000000e+00  -4.5107252821195203e-02 -6.6538095983994412e-03 0.0000000000000000e+00  -6.3770186046233981e-02 -6.5138819813355510e-03 0.0000000000000000e+00  -8.6064141050771537e-02 -6.3236060630548910e-03 0.0000000000000000e+00  -1.1233164227840231e-01 -6.0834009380595268e-03 0.0000000000000000e+00  -1.4289454511788915e-01 -5.7943535518668425e-03 0.0000000000000000e+00  -1.7804653819555241e-01 -5.4586782088839924e-03 0.0000000000000000e+00  0.0000000000000000e+00 4.8531751642385580e-05 0.0000000000000000e+00  -5.6353976484806027e-05 2.9176718231290194e-05 0.0000000000000000e+00  -9.9641959720053852e-05 -2.6800706656504692e-05 0.0000000000000000e+00  -1.1897138888747520e-04 -1.1897138888937178e-04 0.0000000000000000e+00  -1.0291673495905226e-04 -2.4697841668105882e-04 0.0000000000000000e+00  -4.0110971212255537e-05 -4.1035898867254031e-04 0.0000000000000000e+00  8.0464731101900178e-05 -6.0847460563017168e-04 0.0000000000000000e+00  2.6931879377859624e-04 -8.4049631655085176e-04 0.0000000000000000e+00  5.3628642739510419e-04 -1.1053960143570768e-03 0.0000000000000000e+00  8.9033760366146028e-04 -1.4019371002765967e-03 0.0000000000000000e+00  1.3393426547391163e-03 -1.7286637819887978e-03 0.0000000000000000e+00  1.8897836762139263e-03 -2.0838888687576651e-03 0.0000000000000000e+00  2.5463987855891932e-03 -2.4656802791995576e-03 0.0000000000000000e+00  3.3117444483219474e-03 -2.8718467344698178e-03 0.0000000000000000e+00  4.1856590079811145e-03 -3.2999232456064308e-03 0.0000000000000000e+00  5.1646085080612096e-03 -3.7471570717224393e-03 0.0000000000000000e+00  6.2408941248456454e-03 -4.2104948758017388e-03 0.0000000000000000e+00  7.4016993655467997e-03 -4.6865718598695779e-03 0.0000000000000000e+00  8.6279550524259382e-03 -5.1717037306965750e-03 0.0000000000000000e+00  9.8930015749145502e-03 -5.6618824299140749e-03 0.0000000000000000e+00  1.1161031661640244e-02 -6.1527766560055723e-03 0.0000000000000000e+00  1.2385303867985023e-02 -6.6397383058163584e-03 0.0000000000000000e+00  1.3506128079137069e-02 -7.1178160638362634e-03 0.0000000000000000e+00  1.4448640623137859e-02 -7.5817774599374714e-03 0.0000000000000000e+00  1.5120408991760696e-02 -8.0261407864570481e-03 0.0000000000000000e+00  1.5408935234013729e-02 -8.4452182935876655e-03 0.0000000000000000e+00  1.5179162635404680e-02 -8.8331720376352927e-03 0.0000000000000000e+00  1.4271130921557426e-02 -9.1840835995176621e-03 0.0000000000000000e+00  1.2497967762035456e-02 -9.4920385708572984e-03 0.0000000000000000e+00  9.6444434118367704e-03 -9.7512261648205860e-03 0.0000000000000000e+00  5.4663431570812710e-03 -9.9560534963778029e-03 0.0000000000000000e+00  -3.0908082530205591e-04 -1.0101272958184566e-02 0.0000000000000000e+00  -7.9813406799653427e-03 -1.0182119697521681e-02 0.0000000000000000e+00  -1.7873452989140916e-02 -1.0194454527662990e-02 0.0000000000000000e+00  -3.0327119258702285e-02 -1.0134905784034772e-02 0.0000000000000000e+00  -4.5696420827542522e-02 -1.0001001868140132e-02 0.0000000000000000e+00  -6.4340266174907887e-02 -9.7912852610107150e-03 0.0000000000000000e+00  -8.6613988955432722e-02 -9.5054017581908748e-03 0.0000000000000000e+00  -1.1286062393742090e-01 -9.1441762324580636e-03 0.0000000000000000e+00  -1.4340246902985024e-01 -8.7097440889753307e-03 0.0000000000000000e+00  -1.7853357986640664e-01 -8.2059230749127483e-03 0.0000000000000000e+00  0.0000000000000000e+00 1.1929770649670464e-04 0.0000000000000000e+00  -9.8880635351564520e-05 9.3927225799252164e-05 0.0000000000000000e+00  -1.8498384522178845e-04 1.9731189275554676e-05 0.0000000000000000e+00  -2.4697841668364442e-04 -1.0291673495935470e-04 0.0000000000000000e+00  -2.7350019276497844e-04 -2.7350019276215496e-04 0.0000000000000000e+00  -2.5322306816445944e-04 -4.9135610233136796e-04 0.0000000000000000e+00  -1.7513056407105680e-04 -7.5560906551914173e-04 0.0000000000000000e+00  -2.8691351258549442e-05 -1.0651469745046832e-03 0.0000000000000000e+00  1.9597277496121793e-04 -1.4186052453709836e-03 0.0000000000000000e+00  5.0789379397311993e-04 -1.8143512737572977e-03 0.0000000000000000e+00  9.1502332503652411e-04 -2.2504673648742410e-03 0.0000000000000000e+00  1.4239447937055888e-03 -2.7247321421731640e-03 0.0000000000000000e+00  2.0395185923399567e-03 -3.2346008236345688e-03 0.0000000000000000e+00  2.7644452172682467e-03 -3.7771848775596563e-03 0.0000000000000000e+00  3.5987293494590135e-03 -4.3492316752367791e-03 0.0000000000000000e+00  4.5390258329460345e-03 -4.9471048700992044e-03 0.0000000000000000e+00  5.5778467589918789e-03 -5.5667663489353527e-03 0.0000000000000000e+00  6.7026077102644820e-03 -6.2037607181184328e-03 0.0000000000000000e+00  7.8944910914799573e-03 -6.8532034110194394e-03 0.0000000000000000e+00  9.1271059366275116e-03 -7.5097736336122269e-03 0.0000000000000000e+00  1.0364927355292052e-02 -8.1677135049660274e-03 0.0000000000000000e+00  1.1561505728487378e-02 -8.8208348968537870e-03 0.0000000000000000e+00  1.2657446877016263e-02 -9.4625356276590803e-03 0.0000000000000000e+00  1.3578180734090419e-02 -1.0085826811000561e-02 0.0000000000000000e+00  1.4231558480084014e-02 -1.0683373283929062e-02 0.0000000000000000e+00  1.4505347199294260e-02 -1.1247549117112938e-02 0.0000000000000000e+00  1.4264726717956564e-02 -1.1770510201514308e-02 0.0000000000000000e+00  1.3349933980520449e-02 -1.2244285757032659e-02 0.0000000000000000e+00  1.1574242956008333e-02 -1.2660890246766915e-02 0.0000000000000000e+00  8.7225072520992538e-03 -1.3012456520413940e-02 0.0000000000000000e+00  4.5505205914997101e-03 -1.3291389967045725e-02 0.0000000000000000e+00  -1.2145425887890721e-03 -1.3490541967961603e-02 0.0000000000000000e+00  -8.8723680812940933e-03 -1.3603398998849360e-02 0.0000000000000000e+00  -1.8746249222979555e-02 -1.3624281433614768e-02 0.0000000000000000e+00  -3.1178270806054145e-02 -1.3548543717161531e-02 0.0000000000000000e+00  -4.6523002069152899e-02 -1.3372765674976726e-02 0.0000000000000000e+00  -6.5139935007454713e-02 -1.3094924480934996e-02 0.0000000000000000e+00  -8.7385065987074073e-02 -1.2714540270485512e-02 0.0000000000000000e+00  -1.1360215434100564e-01 -1.2232797147117046e-02 0.0000000000000000e+00  -1.4411429105834034e-01 -1.1652646160332229e-02 0.0000000000000000e+00  -1.7921649601931763e-01 -1.0978836168350426e-02 0.0000000000000000e+00  0.0000000000000000e+00 2.3687312755568254e-04 0.0000000000000000e+00  -1.5318247998526337e-04 2.0542411211293344e-04 0.0000000000000000e+00  -2.9383472776814385e-04 1.1297858237433012e-04 0.0000000000000000e+00  -4.1035898867637763e-04 -4.0110971211018387e-05 0.0000000000000000e+00  -4.9135610233509036e-04 -2.5322306816374191e-04 0.0000000000000000e+00  -5.2552045919217313e-04 -5.2552045918902851e-04 0.0000000000000000e+00  -5.0183212788709188e-04 -8.5591053232553292e-04 0.0000000000000000e+00  -4.0973128640996691e-04 -1.2430164012658816e-03 0.0000000000000000e+00  -2.3928806129110695e-04 -1.6851553053030691e-03 0.0000000000000000e+00  1.8604462050665192e-05 -2.1803175025978290e-03 0.0000000000000000e+00  3.7199728684353872e-04 -2.7261435858357791e-03 0.0000000000000000e+00  8.2759917781529823e-04 -3.3198999958599183e-03 0.0000000000000000e+00  1.3904232733260823e-03 -3.9584531195193716e-03 0.0000000000000000e+00  2.0633514234562294e-03 -4.6382425911786970e-03 0.0000000000000000e+00  2.8465990843545902e-03 -5.3552545519368324e-03 0.0000000000000000e+00  3.7370616014156381e-03 -6.1049957427458459e-03 0.0000000000000000e+00  4.7275209689414174e-03 -6.8824694412456689e-03 0.0000000000000000e+00  5.8056909981388906e-03 -7.6821544000008762e-03 0.0000000000000000e+00  6.9530786943057350e-03 -8.4979881064737046e-03 0.0000000000000000e+00  8.1436411052082137e-03 -9.3233558618367081e-03 0.0000000000000000e+00  9.3422206734093162e-03 -1.0151087366704649e-02 0.0000000000000000e+00  1.0502749074761291e-02 -1.0973462705435833e-02 0.0000000000000000e+00  1.1566220644096355e-02 -1.1782229833165233e-02 0.0000000000000000e+00  1.2458452811733092e-02 -1.2568635881168352e-02 0.0000000000000000e+00  1.3087673426813605e-02 -1.3323474788982416e-02 0.0000000000000000e+00  1.3342003988895651e-02 -1.4037153914782680e-02 0.0000000000000000e+00  1.3086943477470253e-02 -1.4699782320063394e-02 0.0000000000000000e+00  1.2162998268797416e-02 -1.5301283299630387e-02 0.0000000000000000e+00  1.0383646407572293e-02 -1.5831533338713184e-02 0.0000000000000000e+00  7.5338638755667129e-03 -1.6280528910399182e-02 0.0000000000000000e+00  3.3694687063495227e-03 -1.6638581260527779e-02 0.0000000000000000e+00  -2.3824538432434500e-03 -1.6896537470591388e-02 0.0000000000000000e+00  -1.0021805530418398e-02 -1.7046023626223282e-02 0.0000000000000000e+00  -1.9872232198631663e-02 -1.7079702974627482e-02 0.0000000000000000e+00  -3.2276312427773374e-02 -1.6991538868035831e-02 0.0000000000000000e+00  -4.7589248969767052e-02 -1.6777049657187269e-02 0.0000000000000000e+00  -6.6171298794142713e-02 -1.6433541255037716e-02 0.0000000000000000e+00  -8.8379341287380439e-02 -1.5960303001914835e-02 0.0000000000000000e+00  -1.1455812156681726e-01 -1.5358750897084604e-02 0.0000000000000000e+00  -1.4503179628959084e-01 -1.4632487788764517e-02 0.0000000000000000e+00  -1.8009643702890729e-01 -1.3787196916926817e-02 0.0000000000000000e+00  0.0000000000000000e+00 4.1221601544601282e-04 0.0000000000000000e+00  -2.1907992579363921e-04 3.7467352612426287e-04 0.0000000000000000e+00  -4.2581119099937734e-04 2.6396689771675491e-04 0.0000000000000000e+00  -6.0847460562939984e-04 8.0464731105279325e-05 0.0000000000000000e+00  -7.5560906551967223e-04 -1.7513056406831187e-04 0.0000000000000000e+00  -8.5591053232741054e-04 -5.0183212788404701e-04 0.0000000000000000e+00  -8.9835084823583955e-04 -8.9835084823542397e-04 0.0000000000000000e+00  -8.7233807430721756e-04 -1.3630665304426449e-03 0.0000000000000000e+00  -7.6788413636289909e-04 -1.8940016493796067e-03 0.0000000000000000e+00  -5.7579631391413920e-04 -2.4887948523946803e-03 0.0000000000000000e+00  -2.8790820114098372e-04 -3.1446725986664058e-03 0.0000000000000000e+00  1.0263613450228900e-04 -3.8584186578221910e-03 0.0000000000000000e+00  6.0103080929298528e-04 -4.6263418308294373e-03 0.0000000000000000e+00  1.2103741751289059e-03 -5.4442425615115388e-03 0.0000000000000000e+00  1.9311349415611157e-03 -6.3073792965027782e-03 0.0000000000000000e+00  2.7604990630485447e-03 -7.2104356119937129e-03 0.0000000000000000e+00  3.6915763415872214e-03 -8.1474892901200191e-03 0.0000000000000000e+00  4.7124445318394107e-03 -9.1119847079741429e-03 0.0000000000000000e+00  5.8050085950278234e-03 -1.0096710102548995e-02 0.0000000000000000e+00  6.9436541996601587e-03 -1.1093781496968450e-02 0.0000000000000000e+00  8.0936783300028532e-03 -1.2094635317999168e-02 0.0000000000000000e+00  9.2094868086777405e-03 -1.3090032000887175e-02 0.0000000000000000e+00  1.0232559660274048e-02 -1.4070073160848580e-02 0.0000000000000000e+00  1.1089201577548096e-02 -1.5024235200464869e-02 0.0000000000000000e+00  1.1688117231628565e-02 -1.5941422498330630e-02 0.0000000000000000e+00  1.1917880364439701e-02 -1.6810043549606715e-02 0.0000000000000000e+00  1.1644401354895367e-02 -1.7618113544721401e-02 0.0000000000000000e+00  1.0708538881613241e-02 -1.8353386791141211e-02 0.0000000000000000e+00  8.9240442715617721e-03 -1.9003521986352929e-02 0.0000000000000000e+00  6.0760667504143684e-03 -1.9556282492124991e-02 0.0000000000000000e+00  1.9204763260171904e-03 -1.9999772285550072e-02 0.0000000000000000e+00  -3.8157312645866123e-03 -2.0322706042609041e-02 0.0000000000000000e+00  -1.1432706478334472e-02 -2.0514708800834069e-02 0.0000000000000000e+00  -2.1254516449964393e-02 -2.056663696