<?xml version="1.0"?>
<VTKFile type="UnstructuredGrid"  version="0.1"  >
<UnstructuredGrid>
<Piece  NumberOfPoints="1681" NumberOfCells="3200">
<Points>
<DataArray  type="Float64"  NumberOfComponents="3"  format="ascii">0 0 0  0.5 0 0  1 0 0  1.5 0 0  2 0 0  2.5 0 0  3 0 0  3.5 0 0  4 0 0  4.5 0 0  5 0 0  5.5 0 0  6 0 0  6.5 0 0  7 0 0  7.5 0 0  8 0 0  8.5 0 0  9 0 0  9.5 0 0  10 0 0  10.5 0 0  11 0 0  11.5 0 0  12 0 0  12.5 0 0  13 0 0  13.5 0 0  14 0 0  14.5 0 0  15 0 0  15.5 0 0  16 0 0  16.5 0 0  17 0 0  17.5 0 0  18 0 0  18.5 0 0  19 0 0  19.5 0 0  20 0 0  0 0.5 0  0.5 0.5 0  1 0.5 0  1.5 0.5 0  2 0.5 0  2.5 0.5 0  3 0.5 0  3.5 0.5 0  4 0.5 0  4.5 0.5 0  5 0.5 0  5.5 0.5 0  6 0.5 0  6.5 0.5 0  7 0.5 0  7.5 0.5 0  8 0.5 0  8.5 0.5 0  9 0.5 0  9.5 0.5 0  10 0.5 0  10.5 0.5 0  11 0.5 0  11.5 0.5 0  12 0.5 0  12.5 0.5 0  13 0.5 0  13.5 0.5 0  14 0.5 0  14.5 0.5 0  15 0.5 0  15.5 0.5 0  16 0.5 0  16.5 0.5 0  17 0.5 0  17.5 0.5 0  18 0.5 0  18.5 0.5 0  19 0.5 0  19.5 0.5 0  20 0.5 0  0 1 0  0.5 1 0  1 1 0  1.5 1 0  2 1 0  2.5 1 0  3 1 0  3.5 1 0  4 1 0  4.5 1 0  5 1 0  5.5 1 0  6 1 0  6.5 1 0  7 1 0  7.5 1 0  8 1 0  8.5 1 0  9 1 0  9.5 1 0  10 1 0  10.5 1 0  11 1 0  11.5 1 0  12 1 0  12.5 1 0  13 1 0  13.5 1 0  14 1 0  14.5 1 0  15 1 0  15.5 1 0  16 1 0  16.5 1 0  17 1 0  17.5 1 0  18 1 0  18.5 1 0  19 1 0  19.5 1 0  20 1 0  0 1.5 0  0.5 1.5 0  1 1.5 0  1.5 1.5 0  2 1.5 0  2.5 1.5 0  3 1.5 0  3.5 1.5 0  4 1.5 0  4.5 1.5 0  5 1.5 0  5.5 1.5 0  6 1.5 0  6.5 1.5 0  7 1.5 0  7.5 1.5 0  8 1.5 0  8.5 1.5 0  9 1.5 0  9.5 1.5 0  10 1.5 0  10.5 1.5 0  11 1.5 0  11.5 1.5 0  12 1.5 0  12.5 1.5 0  13 1.5 0  13.5 1.5 0  14 1.5 0  14.5 1.5 0  15 1.5 0  15.5 1.5 0  16 1.5 0  16.5 1.5 0  17 1.5 0  17.5 1.5 0  18 1.5 0  18.5 1.5 0  19 1.5 0  19.5 1.5 0  20 1.5 0  0 2 0  0.5 2 0  1 2 0  1.5 2 0  2 2 0  2.5 2 0  3 2 0  3.5 2 0  4 2 0  4.5 2 0  5 2 0  5.5 2 0  6 2 0  6.5 2 0  7 2 0  7.5 2 0  8 2 0  8.5 2 0  9 2 0  9.5 2 0  10 2 0  10.5 2 0  11 2 0  11.5 2 0  12 2 0  12.5 2 0  13 2 0  13.5 2 0  14 2 0  14.5 2 0  15 2 0  15.5 2 0  16 2 0  16.5 2 0  17 2 0  17.5 2 0  18 2 0  18.5 2 0  19 2 0  19.5 2 0  20 2 0  0 2.5 0  0.5 2.5 0  1 2.5 0  1.5 2.5 0  2 2.5 0  2.5 2.5 0  3 2.5 0  3.5 2.5 0  4 2.5 0  4.5 2.5 0  5 2.5 0  5.5 2.5 0  6 2.5 0  6.5 2.5 0  7 2.5 0  7.5 2.5 0  8 2.5 0  8.5 2.5 0  9 2.5 0  9.5 2.5 0  10 2.5 0  10.5 2.5 0  11 2.5 0  11.5 2.5 0  12 2.5 0  12.5 2.5 0  13 2.5 0  13.5 2.5 0  14 2.5 0  14.5 2.5 0  15 2.5 0  15.5 2.5 0  16 2.5 0  16.5 2.5 0  17 2.5 0  17.5 2.5 0  18 2.5 0  18.5 2.5 0  19 2.5 0  19.5 2.5 0  20 2.5 0  0 3 0  0.5 3 0  1 3 0  1.5 3 0  2 3 0  2.5 3 0  3 3 0  3.5 3 0  4 3 0  4.5 3 0  5 3 0  5.5 3 0  6 3 0  6.5 3 0  7 3 0  7.5 3 0  8 3 0  8.5 3 0  9 3 0  9.5 3 0  10 3 0  10.5 3 0  11 3 0  11.5 3 0  12 3 0  12.5 3 0  13 3 0  13.5 3 0  14 3 0  14.5 3 0  15 3 0  15.5 3 0  16 3 0  16.5 3 0  17 3 0  17.5 3 0  18 3 0  18.5 3 0  19 3 0  19.5 3 0  20 3 0  0 3.5 0  0.5 3.5 0  1 3.5 0  1.5 3.5 0  2 3.5 0  2.5 3.5 0  3 3.5 0  3.5 3.5 0  4 3.5 0  4.5 3.5 0  5 3.5 0  5.5 3.5 0  6 3.5 0  6.5 3.5 0  7 3.5 0  7.5 3.5 0  8 3.5 0  8.5 3.5 0  9 3.5 0  9.5 3.5 0  10 3.5 0  10.5 3.5 0  11 3.5 0  11.5 3.5 0  12 3.5 0  12.5 3.5 0  13 3.5 0  13.5 3.5 0  14 3.5 0  14.5 3.5 0  15 3.5 0  15.5 3.5 0  16 3.5 0  16.5 3.5 0  17 3.5 0  17.5 3.5 0  18 3.5 0  18.5 3.5 0  19 3.5 0  19.5 3.5 0  20 3.5 0  0 4 0  0.5 4 0  1 4 0  1.5 4 0  2 4 0  2.5 4 0  3 4 0  3.5 4 0  4 4 0  4.5 4 0  5 4 0  5.5 4 0  6 4 0  6.5 4 0  7 4 0  7.5 4 0  8 4 0  8.5 4 0  9 4 0  9.5 4 0  10 4 0  10.5 4 0  11 4 0  11.5 4 0  12 4 0  12.5 4 0  13 4 0  13.5 4 0  14 4 0  14.5 4 0  15 4 0  15.5 4 0  16 4 0  16.5 4 0  17 4 0  17.5 4 0  18 4 0  18.5 4 0  19 4 0  19.5 4 0  20 4 0  0 4.5 0  0.5 4.5 0  1 4.5 0  1.5 4.5 0  2 4.5 0  2.5 4.5 0  3 4.5 0  3.5 4.5 0  4 4.5 0  4.5 4.5 0  5 4.5 0  5.5 4.5 0  6 4.5 0  6.5 4.5 0  7 4.5 0  7.5 4.5 0  8 4.5 0  8.5 4.5 0  9 4.5 0  9.5 4.5 0  10 4.5 0  10.5 4.5 0  11 4.5 0  11.5 4.5 0  12 4.5 0  12.5 4.5 0  13 4.5 0  13.5 4.5 0  14 4.5 0  14.5 4.5 0  15 4.5 0  15.5 4.5 0  16 4.5 0  16.5 4.5 0  17 4.5 0  17.5 4.5 0  18 4.5 0  18.5 4.5 0  19 4.5 0  19.5 4.5 0  20 4.5 0  0 5 0  0.5 5 0  1 5 0  1.5 5 0  2 5 0  2.5 5 0  3 5 0  3.5 5 0  4 5 0  4.5 5 0  5 5 0  5.5 5 0  6 5 0  6.5 5 0  7 5 0  7.5 5 0  8 5 0  8.5 5 0  9 5 0  9.5 5 0  10 5 0  10.5 5 0  11 5 0  11.5 5 0  12 5 0  12.5 5 0  13 5 0  13.5 5 0  14 5 0  14.5 5 0  15 5 0  15.5 5 0  16 5 0  16.5 5 0  17 5 0  17.5 5 0  18 5 0  18.5 5 0  19 5 0  19.5 5 0  20 5 0  0 5.5 0  0.5 5.5 0  1 5.5 0  1.5 5.5 0  2 5.5 0  2.5 5.5 0  3 5.5 0  3.5 5.5 0  4 5.5 0  4.5 5.5 0  5 5.5 0  5.5 5.5 0  6 5.5 0  6.5 5.5 0  7 5.5 0  7.5 5.5 0  8 5.5 0  8.5 5.5 0  9 5.5 0  9.5 5.5 0  10 5.5 0  10.5 5.5 0  11 5.5 0  11.5 5.5 0  12 5.5 0  12.5 5.5 0  13 5.5 0  13.5 5.5 0  14 5.5 0  14.5 5.5 0  15 5.5 0  15.5 5.5 0  16 5.5 0  16.5 5.5 0  17 5.5 0  17.5 5.5 0  18 5.5 0  18.5 5.5 0  19 5.5 0  19.5 5.5 0  20 5.5 0  0 6 0  0.5 6 0  1 6 0  1.5 6 0  2 6 0  2.5 6 0  3 6 0  3.5 6 0  4 6 0  4.5 6 0  5 6 0  5.5 6 0  6 6 0  6.5 6 0  7 6 0  7.5 6 0  8 6 0  8.5 6 0  9 6 0  9.5 6 0  10 6 0  10.5 6 0  11 6 0  11.5 6 0  12 6 0  12.5 6 0  13 6 0  13.5 6 0  14 6 0  14.5 6 0  15 6 0  15.5 6 0  16 6 0  16.5 6 0  17 6 0  17.5 6 0  18 6 0  18.5 6 0  19 6 0  19.5 6 0  20 6 0  0 6.5 0  0.5 6.5 0  1 6.5 0  1.5 6.5 0  2 6.5 0  2.5 6.5 0  3 6.5 0  3.5 6.5 0  4 6.5 0  4.5 6.5 0  5 6.5 0  5.5 6.5 0  6 6.5 0  6.5 6.5 0  7 6.5 0  7.5 6.5 0  8 6.5 0  8.5 6.5 0  9 6.5 0  9.5 6.5 0  10 6.5 0  10.5 6.5 0  11 6.5 0  11.5 6.5 0  12 6.5 0  12.5 6.5 0  13 6.5 0  13.5 6.5 0  14 6.5 0  14.5 6.5 0  15 6.5 0  15.5 6.5 0  16 6.5 0  16.5 6.5 0  17 6.5 0  17.5 6.5 0  18 6.5 0  18.5 6.5 0  19 6.5 0  19.5 6.5 0  20 6.5 0  0 7 0  0.5 7 0  1 7 0  1.5 7 0  2 7 0  2.5 7 0  3 7 0  3.5 7 0  4 7 0  4.5 7 0  5 7 0  5.5 7 0  6 7 0  6.5 7 0  7 7 0  7.5 7 0  8 7 0  8.5 7 0  9 7 0  9.5 7 0  10 7 0  10.5 7 0  11 7 0  11.5 7 0  12 7 0  12.5 7 0  13 7 0  13.5 7 0  14 7 0  14.5 7 0  15 7 0  15.5 7 0  16 7 0  16.5 7 0  17 7 0  17.5 7 0  18 7 0  18.5 7 0  19 7 0  19.5 7 0  20 7 0  0 7.5 0  0.5 7.5 0  1 7.5 0  1.5 7.5 0  2 7.5 0  2.5 7.5 0  3 7.5 0  3.5 7.5 0  4 7.5 0  4.5 7.5 0  5 7.5 0  5.5 7.5 0  6 7.5 0  6.5 7.5 0  7 7.5 0  7.5 7.5 0  8 7.5 0  8.5 7.5 0  9 7.5 0  9.5 7.5 0  10 7.5 0  10.5 7.5 0  11 7.5 0  11.5 7.5 0  12 7.5 0  12.5 7.5 0  13 7.5 0  13.5 7.5 0  14 7.5 0  14.5 7.5 0  15 7.5 0  15.5 7.5 0  16 7.5 0  16.5 7.5 0  17 7.5 0  17.5 7.5 0  18 7.5 0  18.5 7.5 0  19 7.5 0  19.5 7.5 0  20 7.5 0  0 8 0  0.5 8 0  1 8 0  1.5 8 0  2 8 0  2.5 8 0  3 8 0  3.5 8 0  4 8 0  4.5 8 0  5 8 0  5.5 8 0  6 8 0  6.5 8 0  7 8 0  7.5 8 0  8 8 0  8.5 8 0  9 8 0  9.5 8 0  10 8 0  10.5 8 0  11 8 0  11.5 8 0  12 8 0  12.5 8 0  13 8 0  13.5 8 0  14 8 0  14.5 8 0  15 8 0  15.5 8 0  16 8 0  16.5 8 0  17 8 0  17.5 8 0  18 8 0  18.5 8 0  19 8 0  19.5 8 0  20 8 0  0 8.5 0  0.5 8.5 0  1 8.5 0  1.5 8.5 0  2 8.5 0  2.5 8.5 0  3 8.5 0  3.5 8.5 0  4 8.5 0  4.5 8.5 0  5 8.5 0  5.5 8.5 0  6 8.5 0  6.5 8.5 0  7 8.5 0  7.5 8.5 0  8 8.5 0  8.5 8.5 0  9 8.5 0  9.5 8.5 0  10 8.5 0  10.5 8.5 0  11 8.5 0  11.5 8.5 0  12 8.5 0  12.5 8.5 0  13 8.5 0  13.5 8.5 0  14 8.5 0  14.5 8.5 0  15 8.5 0  15.5 8.5 0  16 8.5 0  16.5 8.5 0  17 8.5 0  17.5 8.5 0  18 8.5 0  18.5 8.5 0  19 8.5 0  19.5 8.5 0  20 8.5 0  0 9 0  0.5 9 0  1 9 0  1.5 9 0  2 9 0  2.5 9 0  3 9 0  3.5 9 0  4 9 0  4.5 9 0  5 9 0  5.5 9 0  6 9 0  6.5 9 0  7 9 0  7.5 9 0  8 9 0  8.5 9 0  9 9 0  9.5 9 0  10 9 0  10.5 9 0  11 9 0  11.5 9 0  12 9 0  12.5 9 0  13 9 0  13.5 9 0  14 9 0  14.5 9 0  15 9 0  15.5 9 0  16 9 0  16.5 9 0  17 9 0  17.5 9 0  18 9 0  18.5 9 0  19 9 0  19.5 9 0  20 9 0  0 9.5 0  0.5 9.5 0  1 9.5 0  1.5 9.5 0  2 9.5 0  2.5 9.5 0  3 9.5 0  3.5 9.5 0  4 9.5 0  4.5 9.5 0  5 9.5 0  5.5 9.5 0  6 9.5 0  6.5 9.5 0  7 9.5 0  7.5 9.5 0  8 9.5 0  8.5 9.5 0  9 9.5 0  9.5 9.5 0  10 9.5 0  10.5 9.5 0  11 9.5 0  11.5 9.5 0  12 9.5 0  12.5 9.5 0  13 9.5 0  13.5 9.5 0  14 9.5 0  14.5 9.5 0  15 9.5 0  15.5 9.5 0  16 9.5 0  16.5 9.5 0  17 9.5 0  17.5 9.5 0  18 9.5 0  18.5 9.5 0  19 9.5 0  19.5 9.5 0  20 9.5 0  0 10 0  0.5 10 0  1 10 0  1.5 10 0  2 10 0  2.5 10 0  3 10 0  3.5 10 0  4 10 0  4.5 10 0  5 10 0  5.5 10 0  6 10 0  6.5 10 0  7 10 0  7.5 10 0  8 10 0  8.5 10 0  9 10 0  9.5 10 0  10 10 0  10.5 10 0  11 10 0  11.5 10 0  12 10 0  12.5 10 0  13 10 0  13.5 10 0  14 10 0  14.5 10 0  15 10 0  15.5 10 0  16 10 0  16.5 10 0  17 10 0  17.5 10 0  18 10 0  18.5 10 0  19 10 0  19.5 10 0  20 10 0  0 10.5 0  0.5 10.5 0  1 10.5 0  1.5 10.5 0  2 10.5 0  2.5 10.5 0  3 10.5 0  3.5 10.5 0  4 10.5 0  4.5 10.5 0  5 10.5 0  5.5 10.5 0  6 10.5 0  6.5 10.5 0  7 10.5 0  7.5 10.5 0  8 10.5 0  8.5 10.5 0  9 10.5 0  9.5 10.5 0  10 10.5 0  10.5 10.5 0  11 10.5 0  11.5 10.5 0  12 10.5 0  12.5 10.5 0  13 10.5 0  13.5 10.5 0  14 10.5 0  14.5 10.5 0  15 10.5 0  15.5 10.5 0  16 10.5 0  16.5 10.5 0  17 10.5 0  17.5 10.5 0  18 10.5 0  18.5 10.5 0  19 10.5 0  19.5 10.5 0  20 10.5 0  0 11 0  0.5 11 0  1 11 0  1.5 11 0  2 11 0  2.5 11 0  3 11 0  3.5 11 0  4 11 0  4.5 11 0  5 11 0  5.5 11 0  6 11 0  6.5 11 0  7 11 0  7.5 11 0  8 11 0  8.5 11 0  9 11 0  9.5 11 0  10 11 0  10.5 11 0  11 11 0  11.5 11 0  12 11 0  12.5 11 0  13 11 0  13.5 11 0  14 11 0  14.5 11 0  15 11 0  15.5 11 0  16 11 0  16.5 11 0  17 11 0  17.5 11 0  18 11 0  18.5 11 0  19 11 0  19.5 11 0  20 11 0  0 11.5 0  0.5 11.5 0  1 11.5 0  1.5 11.5 0  2 11.5 0  2.5 11.5 0  3 11.5 0  3.5 11.5 0  4 11.5 0  4.5 11.5 0  5 11.5 0  5.5 11.5 0  6 11.5 0  6.5 11.5 0  7 11.5 0  7.5 11.5 0  8 11.5 0  8.5 11.5 0  9 11.5 0  9.5 11.5 0  10 11.5 0  10.5 11.5 0  11 11.5 0  11.5 11.5 0  12 11.5 0  12.5 11.5 0  13 11.5 0  13.5 11.5 0  14 11.5 0  14.5 11.5 0  15 11.5 0  15.5 11.5 0  16 11.5 0  16.5 11.5 0  17 11.5 0  17.5 11.5 0  18 11.5 0  18.5 11.5 0  19 11.5 0  19.5 11.5 0  20 11.5 0  0 12 0  0.5 12 0  1 12 0  1.5 12 0  2 12 0  2.5 12 0  3 12 0  3.5 12 0  4 12 0  4.5 12 0  5 12 0  5.5 12 0  6 12 0  6.5 12 0  7 12 0  7.5 12 0  8 12 0  8.5 12 0  9 12 0  9.5 12 0  10 12 0  10.5 12 0  11 12 0  11.5 12 0  12 12 0  12.5 12 0  13 12 0  13.5 12 0  14 12 0  14.5 12 0  
[...]
<PointData  Vectors="f_5623-0"> 
<DataArray  type="Float64"  Name="f_5623-0"  NumberOfComponents="3" format="ascii">0.0000000000000000e+00 0.0000000000000000e+00 0.0000000000000000e+00  -4.3533447871911891e-06 0.0000000000000000e+00 0.0000000000000000e+00  3.2604417692770928e-06 0.0000000000000000e+00 0.0000000000000000e+00  3.9974778726247122e-05 0.0000000000000000e+00 0.0000000000000000e+00  1.2009576981195779e-04 0.0000000000000000e+00 0.0000000000000000e+00  2.5728808078028415e-04 0.0000000000000000e+00 0.0000000000000000e+00  4.6453982723440888e-04 0.0000000000000000e+00 0.0000000000000000e+00  7.5393571717832189e-04 0.0000000000000000e+00 0.0000000000000000e+00  1.1363852537669336e-03 0.0000000000000000e+00 0.0000000000000000e+00  1.6213032365518436e-03 0.0000000000000000e+00 0.0000000000000000e+00  2.2162299846167611e-03 0.0000000000000000e+00 0.0000000000000000e+00  2.9263780129733553e-03 0.0000000000000000e+00 0.0000000000000000e+00  3.7540911011624328e-03 0.0000000000000000e+00 0.0000000000000000e+00  4.6982007692330892e-03 0.0000000000000000e+00 0.0000000000000000e+00  5.7532644840002142e-03 0.0000000000000000e+00 0.0000000000000000e+00  6.9086697613547788e-03 0.0000000000000000e+00 0.0000000000000000e+00  8.1475890343341642e-03 0.0000000000000000e+00 0.0000000000000000e+00  9.4457721173543778e-03 0.0000000000000000e+00 0.0000000000000000e+00  1.0770166793328583e-02 0.0000000000000000e+00 0.0000000000000000e+00  1.2077364042130320e-02 0.0000000000000000e+00 0.0000000000000000e+00  1.3311873329347020e-02 0.0000000000000000e+00 0.0000000000000000e+00  1.4404245796198478e-02 0.0000000000000000e+00 0.0000000000000000e+00  1.5269079647245307e-02 0.0000000000000000e+00 0.0000000000000000e+00  1.5802962778666909e-02 0.0000000000000000e+00 0.0000000000000000e+00  1.5882432512530777e-02 0.0000000000000000e+00 0.0000000000000000e+00  1.5362060239581306e-02 0.0000000000000000e+00 0.0000000000000000e+00  1.4072797822537937e-02 0.0000000000000000e+00 0.0000000000000000e+00  1.1820749477117523e-02 0.0000000000000000e+00 0.0000000000000000e+00  8.3865528547699165e-03 0.0000000000000000e+00 0.0000000000000000e+00  3.5255603791903420e-03 0.0000000000000000e+00 0.0000000000000000e+00  -3.0309997201945701e-03 0.0000000000000000e+00 0.0000000000000000e+00  -1.1573739205936425e-02 0.0000000000000000e+00 0.0000000000000000e+00  -2.2411622168902121e-02 0.0000000000000000e+00 0.0000000000000000e+00  -3.5867282357614369e-02 0.0000000000000000e+00 0.0000000000000000e+00  -5.2271260619082174e-02 0.0000000000000000e+00 0.0000000000000000e+00  -7.1955387740970211e-02 0.0000000000000000e+00 0.0000000000000000e+00  -9.5245629556381911e-02 0.0000000000000000e+00 0.0000000000000000e+00  -1.2245474509856256e-01 0.0000000000000000e+00 0.0000000000000000e+00  -1.5387496167793310e-01 0.0000000000000000e+00 0.0000000000000000e+00  -1.8976996067746837e-01 0.0000000000000000e+00 0.0000000000000000e+00  -2.3036266135985986e-01 0.0000000000000000e+00 0.0000000000000000e+00  0.0000000000000000e+00 -4.3533447867974306e-06 0.0000000000000000e+00  -1.4636149822459108e-05 -1.4636149823178954e-05 0.0000000000000000e+00  -1.4097249259838763e-05 -3.9383825660005676e-05 0.0000000000000000e+00  1.5154610823975677e-05 -7.8806630912526003e-05 0.0000000000000000e+00  8.7573715646270539e-05 -1.3331547135045531e-04 0.0000000000000000e+00  2.1697944146697583e-04 -2.0291458972150300e-04 0.0000000000000000e+00  4.1642279457674978e-04 -2.8738101779958669e-04 0.0000000000000000e+00  6.9801627080640050e-04 -3.8636318600228760e-04 0.0000000000000000e+00  1.0726865362116447e-03 -4.9941338977505662e-04 0.0000000000000000e+00  1.5498635783185838e-03 -6.2599481057151100e-04 0.0000000000000000e+00  2.1371041383115561e-03 -7.6547984574906085e-04 0.0000000000000000e+00  2.8396397324302078e-03 -9.1714541445236876e-04 0.0000000000000000e+00  3.6598363591248979e-03 -1.0801671287238772e-03 0.0000000000000000e+00  4.5965512941847095e-03 -1.2536130442366350e-03 0.0000000000000000e+00  5.6443714331831183e-03 -1.4364373569634066e-03 0.0000000000000000e+00  6.7927173959626700e-03 -1.6274743210543559e-03 0.0000000000000000e+00  8.0247982790764370e-03 -1.8254326578480452e-03 0.0000000000000000e+00  9.3164038907810436e-03 -2.0288907511841693e-03 0.0000000000000000e+00  1.0634524996850627e-02 -2.2362929646170351e-03 0.0000000000000000e+00  1.1935798099263345e-02 -2.4459474642153922e-03 0.0000000000000000e+00  1.3164780175701753e-02 -2.6560259832445958e-03 0.0000000000000000e+00  1.4252071236267575e-02 -2.8645660195633065e-03 0.0000000000000000e+00  1.5112319016214871e-02 -3.0694760079042521e-03 0.0000000000000000e+00  1.5642160874076393e-02 -3.2685440524282505e-03 0.0000000000000000e+00  1.5718182786403315e-02 -3.4594508312490780e-03 0.0000000000000000e+00  1.5195003259370893e-02 -3.6397872836308742e-03 0.0000000000000000e+00  1.3903619009303713e-02 -3.8070776495881006e-03 0.0000000000000000e+00  1.1650176102252975e-02 -3.9588083347688293e-03 0.0000000000000000e+00  8.2153502159715217e-03 -4.0924629054612189e-03 0.0000000000000000e+00  3.3545269797987092e-03 -4.2055632628354381e-03 0.0000000000000000e+00  -3.2010382969620567e-03 -4.2957166912722129e-03 0.0000000000000000e+00  -1.1741938217504695e-02 -4.3606680226775133e-03 0.0000000000000000e+00  -2.2577128208673809e-02 -4.3983556328394870e-03 0.0000000000000000e+00  -3.6029247810946227e-02 -4.4069694586179372e-03 0.0000000000000000e+00  -5.2428865014488887e-02 -4.3850088259364886e-03 0.0000000000000000e+00  -7.2107873414342702e-02 -4.3313376868234403e-03 0.0000000000000000e+00  -9.5392373599636621e-02 -4.2452341351696156e-03 0.0000000000000000e+00  -1.2259544467250141e-01 -4.1264245166809385e-03 0.0000000000000000e+00  -1.5401026419917058e-01 -3.9750550395877852e-03 0.0000000000000000e+00  -1.8990423110680843e-01 -3.7913865988439539e-03 0.0000000000000000e+00  -2.3051631994367125e-01 -3.5744637637875618e-03 0.0000000000000000e+00  0.0000000000000000e+00 3.2604417697339820e-06 0.0000000000000000e+00  -3.9383825660949149e-05 -1.4097249260699662e-05 0.0000000000000000e+00  -6.2512831264142902e-05 -6.2512831264285163e-05 0.0000000000000000e+00  -5.6611299906660104e-05 -1.4148541430355569e-04 0.0000000000000000e+00  -7.5328043067307204e-06 -2.5087684026848698e-04 0.0000000000000000e+00  9.8489821597788133e-05 -3.9039913949342326e-04 0.0000000000000000e+00  2.7453157521578121e-04 -5.5957205187252335e-04 0.0000000000000000e+00  5.3274227904624705e-04 -7.5771990788594038e-04 0.0000000000000000e+00  8.8408827423086523e-04 -9.8397877181383869e-04 0.0000000000000000e+00  1.3380425797361816e-03 -1.2372998835826852e-03 0.0000000000000000e+00  1.9022109272351095e-03 -1.5164470343256031e-03 0.0000000000000000e+00  2.5818819487125081e-03 -1.8199893523982089e-03 0.0000000000000000e+00  3.3794884214829917e-03 -2.1462912734462334e-03 0.0000000000000000e+00  4.2939650898127426e-03 -2.4935010084053415e-03 0.0000000000000000e+00  5.3199876307960300e-03 -2.8595384322018845e-03 0.0000000000000000e+00  6.4470770354688811e-03 -3.2420831061113894e-03 0.0000000000000000e+00  7.6585543066241676e-03 -3.6385630706502990e-03 0.0000000000000000e+00  8.9303322973327305e-03 -4.0461450495589231e-03 0.0000000000000000e+00  1.0229535192653450e-02 -4.4617267569019396e-03 0.0000000000000000e+00  1.1512942122549059e-02 -4.8819320785881380e-03 0.0000000000000000e+00  1.2725260295764984e-02 -5.3031099973644674e-03 0.0000000000000000e+00  1.3797245472898987e-02 -5.7213382381846667e-03 0.0000000000000000e+00  1.4643704061331300e-02 -6.1324327204940483e-03 0.0000000000000000e+00  1.5161431870803137e-02 -6.5319640049594195e-03 0.0000000000000000e+00  1.5227169398416620e-02 -6.9152819985522310e-03 0.0000000000000000e+00  1.4695681453482353e-02 -7.2775502120950835e-03 0.0000000000000000e+00  1.3398097981649697e-02 -7.6137908204431566e-03 0.0000000000000000e+00  1.1140679810398622e-02 -7.9189416206717610e-03 0.0000000000000000e+00  7.7041930423354934e-03 -8.1879256791494437e-03 0.0000000000000000e+00  2.8440831506313527e-03 -8.4157339620697467e-03 0.0000000000000000e+00  -3.7083717866962878e-03 -8.5975205267831249e-03 0.0000000000000000e+00  -1.2243785307525632e-02 -8.7287089031799128e-03 0.0000000000000000e+00  -2.3071184237353427e-02 -8.8051071447078494e-03 0.0000000000000000e+00  -3.6513337215819022e-02 -8.8230277335154452e-03 0.0000000000000000e+00  -5.2901007914266454e-02 -8.7794070958213417e-03 0.0000000000000000e+00  -7.2566365618796605e-02 -8.6719176435048860e-03 0.0000000000000000e+00  -9.5835890613118757e-02 -8.4990619644105033e-03 0.0000000000000000e+00  -1.2302318967249036e-01 -8.2602323868626367e-03 0.0000000000000000e+00  -1.5442217614755832e-01 -7.9557145850925499e-03 0.0000000000000000e+00  -1.9030106502831706e-01 -7.5866714532068441e-03 0.0000000000000000e+00  -2.3089737453240911e-01 -7.1556558959811594e-03 0.0000000000000000e+00  0.0000000000000000e+00 3.9974778729546654e-05 0.0000000000000000e+00  -7.8806630911552647e-05 1.5154610821212872e-05 0.0000000000000000e+00  -1.4148541430466905e-04 -5.6611299908957834e-05 0.0000000000000000e+00  -1.7476031081153657e-04 -1.7476031081341059e-04 0.0000000000000000e+00  -1.6473811786073083e-04 -3.3883643406070222e-04 0.0000000000000000e+00  -9.7726962851571794e-05 -5.4825523757346143e-04 0.0000000000000000e+00  3.9337670516982418e-05 -8.0221171460507286e-04 0.0000000000000000e+00  2.5862842583146536e-04 -1.0996609205060795e-03 0.0000000000000000e+00  5.7115542297948049e-04 -1.4393071687916737e-03 0.0000000000000000e+00  9.8645186692548968e-04 -1.8195927533675533e-03 0.0000000000000000e+00  1.5121992681060448e-03 -2.2386850418562049e-03 0.0000000000000000e+00  2.1537783263134978e-03 -2.6944616264309440e-03 0.0000000000000000e+00  2.9137313096708208e-03 -3.1844937007317075e-03 0.0000000000000000e+00  3.7911209624180283e-03 -3.7060281732198275e-03 0.0000000000000000e+00  4.7807702872850934e-03 -4.2559692047920506e-03 0.0000000000000000e+00  5.8723673594748699e-03 -4.8308599464887666e-03 0.0000000000000000e+00  7.0494199970660473e-03 -5.4268653191724735e-03 0.0000000000000000e+00  8.2880470426401984e-03 -6.0397567546193872e-03 0.0000000000000000e+00  9.5555966856824791e-03 -6.6648999202812325e-03 0.0000000000000000e+00  1.0809088233715534e-02 -7.2972465780020467e-03 0.0000000000000000e+00  1.1993482635602714e-02 -7.9313318790228560e-03 0.0000000000000000e+00  1.3039799484756044e-02 -8.5612785665301044e-03 0.0000000000000000e+00  1.3863114694700777e-02 -9.1808097343714177e-03 0.0000000000000000e+00  1.4360493802451697e-02 -9.7832719614856286e-03 0.0000000000000000e+00  1.4408940701182654e-02 -1.0361670783838022e-02 0.0000000000000000e+00  1.3863469575115972e-02 -1.0908720546195540e-02 0.0000000000000000e+00  1.2555436906676544e-02 -1.1416910650359921e-02 0.0000000000000000e+00  1.0291297358810588e-02 -1.1878590026364181e-02 0.0000000000000000e+00  6.8519674353904308e-03 -1.2286071231704918e-02 0.0000000000000000e+00  1.9929882665538690e-03 -1.2631754860842226e-02 0.0000000000000000e+00  -4.5543326277131474e-03 -1.2908273866482960e-02 0.0000000000000000e+00  -1.3080656667080977e-02 -1.3108655927955314e-02 0.0000000000000000e+00  -2.3895146049841796e-02 -1.3226500175940027e-02 0.0000000000000000e+00  -3.7320800927376253e-02 -1.3256162477582989e-02 0.0000000000000000e+00  -5.3688719139372641e-02 -1.3192941233768223e-02 0.0000000000000000e+00  -7.3331510117094684e-02 -1.3033253478225771e-02 0.0000000000000000e+00  -9.6576197403955760e-02 -1.2774789851232886e-02 0.0000000000000000e+00  -1.2373701669551462e-01 -1.2416640467704359e-02 0.0000000000000000e+00  -1.5510854388163012e-01 -1.1959405054005544e-02 0.0000000000000000e+00  -1.9095956950535201e-01 -1.1405374682640810e-02 0.0000000000000000e+00  -2.3152807504802050e-01 -1.0759040228771733e-02 0.0000000000000000e+00  0.0000000000000000e+00 1.2009576981252798e-04 0.0000000000000000e+00  -1.3331547134883920e-04 8.7573715643678754e-05 0.0000000000000000e+00  -2.5087684026903738e-04 -7.5328043080736953e-06 0.0000000000000000e+00  -3.3883643406311045e-04 -1.6473811786396270e-04 0.0000000000000000e+00  -3.8338234470680459e-04 -3.8338234470547199e-04 0.0000000000000000e+00  -3.7087766632786976e-04 -6.6262508249970110e-04 0.0000000000000000e+00  -2.8826313971427441e-04 -1.0013595462494231e-03 0.0000000000000000e+00  -1.2333934300704075e-04 -1.3981811117792817e-03 0.0000000000000000e+00  1.3495562314175881e-04 -1.8513676612186831e-03 0.0000000000000000e+00  4.9623014202289048e-04 -2.3588605592453045e-03 0.0000000000000000e+00  9.6826453029026942e-04 -2.9182438039068921e-03 0.0000000000000000e+00  1.5565628773828671e-03 -3.5267212094202893e-03 0.0000000000000000e+00  2.2638166397516419e-03 -4.1810919934114413e-03 0.0000000000000000e+00  3.0892647313932342e-03 -4.8777253028817538e-03 0.0000000000000000e+00  4.0279342438969933e-03 -5.6125343475221783e-03 0.0000000000000000e+00  5.0697457871260159e-03 -6.3809509525403624e-03 0.0000000000000000e+00  6.1984681349601025e-03 -7.1779014951748408e-03 0.0000000000000000e+00  7.3905088010193581e-03 -7.9977853499909168e-03 0.0000000000000000e+00  8.6135308444388152e-03 -8.8344571461144317e-03 0.0000000000000000e+00  9.8248921789476727e-03 -9.6812143382814259e-03 0.0000000000000000e+00  1.0969912546766377e-02 -1.0530791816896984e-02 0.0000000000000000e+00  1.1979985737160396e-02 -1.1375365526596746e-02 0.0000000000000000e+00  1.2770571093392191e-02 -1.2206567321023964e-02 0.0000000000000000e+00  1.3239119123208916e-02 -1.3015513535786350e-02 0.0000000000000000e+00  1.3263010897918839e-02 -1.3792849984169787e-02 0.0000000000000000e+00  1.2697618942545879e-02 -1.4528816227310025e-02 0.0000000000000000e+00  1.1374626493506157e-02 -1.5213331980382100e-02 0.0000000000000000e+00  9.1007690485081453e-03 -1.5836108308998519e-02 0.0000000000000000e+00  5.6571823923838678e-03 -1.6386785749084008e-02 0.0000000000000000e+00  7.9954892640151515e-04 -1.6855100548546619e-02 0.0000000000000000e+00  -5.7407771365481693e-03 -1.7231078793636341e-02 0.0000000000000000e+00  -1.4254520840890251e-02 -1.7505256204011801e-02 0.0000000000000000e+00  -2.5051032083903212e-02 -1.7668918897644395e-02 0.0000000000000000e+00  -3.8453633216487509e-02 -1.7714357605215322e-02 0.0000000000000000e+00  -5.4793884297266449e-02 -1.7635125016118348e-02 0.0000000000000000e+00  -7.4404995692790687e-02 -1.7426283884206067e-02 0.0000000000000000e+00  -9.7614720368965291e-02 -1.7084633669415206e-02 0.0000000000000000e+00  -1.2473813233803809e-01 -1.6608908563613807e-02 0.0000000000000000e+00  -1.5607073410140421e-01 -1.5999952625177585e-02 0.0000000000000000e+00  -1.9188234494756382e-01 -1.5260890458358028e-02 0.0000000000000000e+00  -2.3241224766787111e-01 -1.4397257369926586e-02 0.0000000000000000e+00  0.0000000000000000e+00 2.5728808077956174e-04 0.0000000000000000e+00  -2.0291458972275411e-04 2.1697944146616813e-04 0.0000000000000000e+00  -3.9039913949527767e-04 9.8489821598577148e-05 0.0000000000000000e+00  -5.4825523757522240e-04 -9.7726962853583857e-05 0.0000000000000000e+00  -6.6262508250161331e-04 -3.7087766632732045e-04 0.0000000000000000e+00  -7.1989936360093135e-04 -7.1989936359994060e-04 0.0000000000000000e+00  -7.0701638031511770e-04 -1.1434081351134396e-03 0.0000000000000000e+00  -6.1174297581881429e-04 -1.6396622232664293e-03 0.0000000000000000e+00  -4.2295489396994941e-04 -2.2065351961239924e-03 0.0000000000000000e+00  -1.3095286329898955e-04 -2.8414900824009787e-03 0.0000000000000000e+00  2.7216425600309782e-04 -3.5415516182285200e-03 0.0000000000000000e+00  7.9205322135760231e-04 -4.3032761596316638e-03 0.0000000000000000e+00  1.4315919333802913e-03 -5.1227196120237871e-03 0.0000000000000000e+00  2.1902412340531223e-03 -5.9954040277503933e-03 0.0000000000000000e+00  3.0632869436559760e-03 -6.9162836912214122e-03 0.0000000000000000e+00  4.0409459786843686e-03 -7.8797116652987338e-03 0.0000000000000000e+00  5.1073210846051056e-03 -8.8794079468218264e-03 0.0000000000000000e+00  6.2391906491060791e-03 -9.9084305806883596e-03 0.0000000000000000e+00  7.4046237247338519e-03 -1.0959151314619425e-02 0.0000000000000000e+00  8.5614163493272499e-03 -1.2023237641605468e-02 0.0000000000000000e+00  9.6553541271493966e-03 -1.3091643375228992e-02 0.0000000000000000e+00  1.0618318441125303e-02 -1.4154610231654621e-02 0.0000000000000000e+00  1.1366270126723102e-02 -1.5201683241885157e-02 0.0000000000000000e+00  1.1797165218169607e-02 -1.6221743168924236e-02 0.0000000000000000e+00  1.1788882277662061e-02 -1.7203059422736453e-02 0.0000000000000000e+00  1.1197268896797863e-02 -1.8133367196544955e-02 0.0000000000000000e+00  9.8544442373511808e-03 -1.8999972613271129e-02 0.0000000000000000e+00  7.5675216858685918e-03 -1.9789889467040432e-02 0.0000000000000000e+00  4.1179361758214642e-03 -2.0490010547088006e-02 0.0000000000000000e+00  -7.3843134309726827e-04 -2.1087315406159806e-02 0.0000000000000000e+00  -7.2701507490853948e-03 -2.1569114666510944e-02 0.0000000000000000e+00  -1.5768014724061911e-02 -2.1923328483618335e-02 0.0000000000000000e+00  -2.6541602520590093e-02 -2.2138793663803242e-02 0.0000000000000000e+00  -3.9914641209281801e-02 -2.2205590388725546e-02 0.0000000000000000e+00  -5.6219278270614362e-02 -2.2115376017006392e-02 0.0000000000000000e+00  -7.5789493827603346e-02 -2.1861710783382657e-02 0.0000000000000000e+00  -9.8953984718395213e-02 -2.1440359346925404e-02 0.0000000000000000e+00  -1.2602892958686107e-01 -2.0849553401800631e-02 0.0000000000000000e+00  -1.5731108419754691e-01 -2.0090200900019568e-02 0.0000000000000000e+00  -1.9307165983880525e-01 -1.9166013420411857e-02 0.0000000000000000e+00  -2.3355141240148916e-01 -1.8083461334862959e-02 0.0000000000000000e+00  0.0000000000000000e+00 4.6453982723115427e-04 0.0000000000000000e+00  -2.8738101779854786e-04 4.1642279457879236e-04 0.0000000000000000e+00  -5.5957205187053330e-04 2.7453157521636993e-04 0.0000000000000000e+00  -8.0221171460383763e-04 3.9337670515159630e-05 0.0000000000000000e+00  -1.0013595462491070e-03 -2.8826313971449667e-04 0.0000000000000000e+00  -1.1434081351095345e-03 -7.0701638031688474e-04 0.0000000000000000e+00  -1.2152865917257798e-03 -1.2152865917302992e-03 0.0000000000000000e+00  -1.2047232350048092e-03 -1.8110210844868384e-03 0.0000000000000000e+00  -1.1005233014371953e-03 -2.4917174998577694e-03 0.0000000000000000e+00  -8.9288325558791891e-04 -3.2543913738037693e-03 0.0000000000000000e+00  -5.7376149598613692e-04 -4.0955414518855423e-03 0.0000000000000000e+00  -1.3732185131416013e-04 -5.0111122362514081e-03 0.0000000000000000e+00  4.1953463930978583e-04 -5.9964540716457336e-03 0.0000000000000000e+00  1.0965339036248197e-03 -7.0462814650623339e-03 0.0000000000000000e+00  1.8892727493223821e-03 -8.1546305693068061e-03 0.0000000000000000e+00  2.7883261881500266e-03 -9.3148169618339771e-03 0.0000000000000000e+00  3.7782025335913491e-03 -1.0519395062840735e-02 0.0000000000000000e+00  4.8361325505459360e-03 -1.1760120780021040e-02 0.0000000000000000e+00  5.9306825769639918e-03 -1.3027919250563551e-02 0.0000000000000000e+00  7.0201874733354262e-03 -1.4312859878609847e-02 0.0000000000000000e+00  8.0510081073338000e-03 -1.5604141240314052e-02 0.0000000000000000e+00  8.9556304697401574e-03 -1.6890088846096420e-02 0.0000000000000000e+00  9.6506399678998791e-03 -1.8158169200042019e-02 0.0000000000000000e+00  1.0034625230106849e-02 -1.9395024056670103e-02 0.0000000000000000e+00  9.9860906878266441e-03 -2.0586529205617224e-02 0.0000000000000000e+00  9.3614853548351657e-03 -2.1717882448899214e-02 0.0000000000000000e+00  7.9934846292373466e-03 -2.2773725579872197e-02 0.0000000000000000e+00  5.6896893508654837e-03 -2.3738305000256543e-02 0.0000000000000000e+00  2.2319271060702462e-03 -2.4595674966989601e-02 0.0000000000000000e+00  -2.6236509430472878e-03 -2.5329946176199696e-02 0.0000000000000000e+00  -9.1454949514455531e-03 -2.5925580315195571e-02 0.0000000000000000e+00  -1.7624455187710455e-02 -2.6367728259607474e-02 0.0000000000000000e+00  -2.8370369412447020e-02 -2.6642605805080259e-02 0.0000000000000000e+00  -4.170744239031153