<?xml version="1.0"?>
<VTKFile type="UnstructuredGrid"  version="0.1"  >
<UnstructuredGrid>
<Piece  NumberOfPoints="1681" NumberOfCells="3200">
<Points>
<DataArray  type="Float64"  NumberOfComponents="3"  format="ascii">0 0 0  0.5 0 0  1 0 0  1.5 0 0  2 0 0  2.5 0 0  3 0 0  3.5 0 0  4 0 0  4.5 0 0  5 0 0  5.5 0 0  6 0 0  6.5 0 0  7 0 0  7.5 0 0  8 0 0  8.5 0 0  9 0 0  9.5 0 0  10 0 0  10.5 0 0  11 0 0  11.5 0 0  12 0 0  12.5 0 0  13 0 0  13.5 0 0  14 0 0  14.5 0 0  15 0 0  15.5 0 0  16 0 0  16.5 0 0  17 0 0  17.5 0 0  18 0 0  18.5 0 0  19 0 0  19.5 0 0  20 0 0  0 0.5 0  0.5 0.5 0  1 0.5 0  1.5 0.5 0  2 0.5 0  2.5 0.5 0  3 0.5 0  3.5 0.5 0  4 0.5 0  4.5 0.5 0  5 0.5 0  5.5 0.5 0  6 0.5 0  6.5 0.5 0  7 0.5 0  7.5 0.5 0  8 0.5 0  8.5 0.5 0  9 0.5 0  9.5 0.5 0  10 0.5 0  10.5 0.5 0  11 0.5 0  11.5 0.5 0  12 0.5 0  12.5 0.5 0  13 0.5 0  13.5 0.5 0  14 0.5 0  14.5 0.5 0  15 0.5 0  15.5 0.5 0  16 0.5 0  16.5 0.5 0  17 0.5 0  17.5 0.5 0  18 0.5 0  18.5 0.5 0  19 0.5 0  19.5 0.5 0  20 0.5 0  0 1 0  0.5 1 0  1 1 0  1.5 1 0  2 1 0  2.5 1 0  3 1 0  3.5 1 0  4 1 0  4.5 1 0  5 1 0  5.5 1 0  6 1 0  6.5 1 0  7 1 0  7.5 1 0  8 1 0  8.5 1 0  9 1 0  9.5 1 0  10 1 0  10.5 1 0  11 1 0  11.5 1 0  12 1 0  12.5 1 0  13 1 0  13.5 1 0  14 1 0  14.5 1 0  15 1 0  15.5 1 0  16 1 0  16.5 1 0  17 1 0  17.5 1 0  18 1 0  18.5 1 0  19 1 0  19.5 1 0  20 1 0  0 1.5 0  0.5 1.5 0  1 1.5 0  1.5 1.5 0  2 1.5 0  2.5 1.5 0  3 1.5 0  3.5 1.5 0  4 1.5 0  4.5 1.5 0  5 1.5 0  5.5 1.5 0  6 1.5 0  6.5 1.5 0  7 1.5 0  7.5 1.5 0  8 1.5 0  8.5 1.5 0  9 1.5 0  9.5 1.5 0  10 1.5 0  10.5 1.5 0  11 1.5 0  11.5 1.5 0  12 1.5 0  12.5 1.5 0  13 1.5 0  13.5 1.5 0  14 1.5 0  14.5 1.5 0  15 1.5 0  15.5 1.5 0  16 1.5 0  16.5 1.5 0  17 1.5 0  17.5 1.5 0  18 1.5 0  18.5 1.5 0  19 1.5 0  19.5 1.5 0  20 1.5 0  0 2 0  0.5 2 0  1 2 0  1.5 2 0  2 2 0  2.5 2 0  3 2 0  3.5 2 0  4 2 0  4.5 2 0  5 2 0  5.5 2 0  6 2 0  6.5 2 0  7 2 0  7.5 2 0  8 2 0  8.5 2 0  9 2 0  9.5 2 0  10 2 0  10.5 2 0  11 2 0  11.5 2 0  12 2 0  12.5 2 0  13 2 0  13.5 2 0  14 2 0  14.5 2 0  15 2 0  15.5 2 0  16 2 0  16.5 2 0  17 2 0  17.5 2 0  18 2 0  18.5 2 0  19 2 0  19.5 2 0  20 2 0  0 2.5 0  0.5 2.5 0  1 2.5 0  1.5 2.5 0  2 2.5 0  2.5 2.5 0  3 2.5 0  3.5 2.5 0  4 2.5 0  4.5 2.5 0  5 2.5 0  5.5 2.5 0  6 2.5 0  6.5 2.5 0  7 2.5 0  7.5 2.5 0  8 2.5 0  8.5 2.5 0  9 2.5 0  9.5 2.5 0  10 2.5 0  10.5 2.5 0  11 2.5 0  11.5 2.5 0  12 2.5 0  12.5 2.5 0  13 2.5 0  13.5 2.5 0  14 2.5 0  14.5 2.5 0  15 2.5 0  15.5 2.5 0  16 2.5 0  16.5 2.5 0  17 2.5 0  17.5 2.5 0  18 2.5 0  18.5 2.5 0  19 2.5 0  19.5 2.5 0  20 2.5 0  0 3 0  0.5 3 0  1 3 0  1.5 3 0  2 3 0  2.5 3 0  3 3 0  3.5 3 0  4 3 0  4.5 3 0  5 3 0  5.5 3 0  6 3 0  6.5 3 0  7 3 0  7.5 3 0  8 3 0  8.5 3 0  9 3 0  9.5 3 0  10 3 0  10.5 3 0  11 3 0  11.5 3 0  12 3 0  12.5 3 0  13 3 0  13.5 3 0  14 3 0  14.5 3 0  15 3 0  15.5 3 0  16 3 0  16.5 3 0  17 3 0  17.5 3 0  18 3 0  18.5 3 0  19 3 0  19.5 3 0  20 3 0  0 3.5 0  0.5 3.5 0  1 3.5 0  1.5 3.5 0  2 3.5 0  2.5 3.5 0  3 3.5 0  3.5 3.5 0  4 3.5 0  4.5 3.5 0  5 3.5 0  5.5 3.5 0  6 3.5 0  6.5 3.5 0  7 3.5 0  7.5 3.5 0  8 3.5 0  8.5 3.5 0  9 3.5 0  9.5 3.5 0  10 3.5 0  10.5 3.5 0  11 3.5 0  11.5 3.5 0  12 3.5 0  12.5 3.5 0  13 3.5 0  13.5 3.5 0  14 3.5 0  14.5 3.5 0  15 3.5 0  15.5 3.5 0  16 3.5 0  16.5 3.5 0  17 3.5 0  17.5 3.5 0  18 3.5 0  18.5 3.5 0  19 3.5 0  19.5 3.5 0  20 3.5 0  0 4 0  0.5 4 0  1 4 0  1.5 4 0  2 4 0  2.5 4 0  3 4 0  3.5 4 0  4 4 0  4.5 4 0  5 4 0  5.5 4 0  6 4 0  6.5 4 0  7 4 0  7.5 4 0  8 4 0  8.5 4 0  9 4 0  9.5 4 0  10 4 0  10.5 4 0  11 4 0  11.5 4 0  12 4 0  12.5 4 0  13 4 0  13.5 4 0  14 4 0  14.5 4 0  15 4 0  15.5 4 0  16 4 0  16.5 4 0  17 4 0  17.5 4 0  18 4 0  18.5 4 0  19 4 0  19.5 4 0  20 4 0  0 4.5 0  0.5 4.5 0  1 4.5 0  1.5 4.5 0  2 4.5 0  2.5 4.5 0  3 4.5 0  3.5 4.5 0  4 4.5 0  4.5 4.5 0  5 4.5 0  5.5 4.5 0  6 4.5 0  6.5 4.5 0  7 4.5 0  7.5 4.5 0  8 4.5 0  8.5 4.5 0  9 4.5 0  9.5 4.5 0  10 4.5 0  10.5 4.5 0  11 4.5 0  11.5 4.5 0  12 4.5 0  12.5 4.5 0  13 4.5 0  13.5 4.5 0  14 4.5 0  14.5 4.5 0  15 4.5 0  15.5 4.5 0  16 4.5 0  16.5 4.5 0  17 4.5 0  17.5 4.5 0  18 4.5 0  18.5 4.5 0  19 4.5 0  19.5 4.5 0  20 4.5 0  0 5 0  0.5 5 0  1 5 0  1.5 5 0  2 5 0  2.5 5 0  3 5 0  3.5 5 0  4 5 0  4.5 5 0  5 5 0  5.5 5 0  6 5 0  6.5 5 0  7 5 0  7.5 5 0  8 5 0  8.5 5 0  9 5 0  9.5 5 0  10 5 0  10.5 5 0  11 5 0  11.5 5 0  12 5 0  12.5 5 0  13 5 0  13.5 5 0  14 5 0  14.5 5 0  15 5 0  15.5 5 0  16 5 0  16.5 5 0  17 5 0  17.5 5 0  18 5 0  18.5 5 0  19 5 0  19.5 5 0  20 5 0  0 5.5 0  0.5 5.5 0  1 5.5 0  1.5 5.5 0  2 5.5 0  2.5 5.5 0  3 5.5 0  3.5 5.5 0  4 5.5 0  4.5 5.5 0  5 5.5 0  5.5 5.5 0  6 5.5 0  6.5 5.5 0  7 5.5 0  7.5 5.5 0  8 5.5 0  8.5 5.5 0  9 5.5 0  9.5 5.5 0  10 5.5 0  10.5 5.5 0  11 5.5 0  11.5 5.5 0  12 5.5 0  12.5 5.5 0  13 5.5 0  13.5 5.5 0  14 5.5 0  14.5 5.5 0  15 5.5 0  15.5 5.5 0  16 5.5 0  16.5 5.5 0  17 5.5 0  17.5 5.5 0  18 5.5 0  18.5 5.5 0  19 5.5 0  19.5 5.5 0  20 5.5 0  0 6 0  0.5 6 0  1 6 0  1.5 6 0  2 6 0  2.5 6 0  3 6 0  3.5 6 0  4 6 0  4.5 6 0  5 6 0  5.5 6 0  6 6 0  6.5 6 0  7 6 0  7.5 6 0  8 6 0  8.5 6 0  9 6 0  9.5 6 0  10 6 0  10.5 6 0  11 6 0  11.5 6 0  12 6 0  12.5 6 0  13 6 0  13.5 6 0  14 6 0  14.5 6 0  15 6 0  15.5 6 0  16 6 0  16.5 6 0  17 6 0  17.5 6 0  18 6 0  18.5 6 0  19 6 0  19.5 6 0  20 6 0  0 6.5 0  0.5 6.5 0  1 6.5 0  1.5 6.5 0  2 6.5 0  2.5 6.5 0  3 6.5 0  3.5 6.5 0  4 6.5 0  4.5 6.5 0  5 6.5 0  5.5 6.5 0  6 6.5 0  6.5 6.5 0  7 6.5 0  7.5 6.5 0  8 6.5 0  8.5 6.5 0  9 6.5 0  9.5 6.5 0  10 6.5 0  10.5 6.5 0  11 6.5 0  11.5 6.5 0  12 6.5 0  12.5 6.5 0  13 6.5 0  13.5 6.5 0  14 6.5 0  14.5 6.5 0  15 6.5 0  15.5 6.5 0  16 6.5 0  16.5 6.5 0  17 6.5 0  17.5 6.5 0  18 6.5 0  18.5 6.5 0  19 6.5 0  19.5 6.5 0  20 6.5 0  0 7 0  0.5 7 0  1 7 0  1.5 7 0  2 7 0  2.5 7 0  3 7 0  3.5 7 0  4 7 0  4.5 7 0  5 7 0  5.5 7 0  6 7 0  6.5 7 0  7 7 0  7.5 7 0  8 7 0  8.5 7 0  9 7 0  9.5 7 0  10 7 0  10.5 7 0  11 7 0  11.5 7 0  12 7 0  12.5 7 0  13 7 0  13.5 7 0  14 7 0  14.5 7 0  15 7 0  15.5 7 0  16 7 0  16.5 7 0  17 7 0  17.5 7 0  18 7 0  18.5 7 0  19 7 0  19.5 7 0  20 7 0  0 7.5 0  0.5 7.5 0  1 7.5 0  1.5 7.5 0  2 7.5 0  2.5 7.5 0  3 7.5 0  3.5 7.5 0  4 7.5 0  4.5 7.5 0  5 7.5 0  5.5 7.5 0  6 7.5 0  6.5 7.5 0  7 7.5 0  7.5 7.5 0  8 7.5 0  8.5 7.5 0  9 7.5 0  9.5 7.5 0  10 7.5 0  10.5 7.5 0  11 7.5 0  11.5 7.5 0  12 7.5 0  12.5 7.5 0  13 7.5 0  13.5 7.5 0  14 7.5 0  14.5 7.5 0  15 7.5 0  15.5 7.5 0  16 7.5 0  16.5 7.5 0  17 7.5 0  17.5 7.5 0  18 7.5 0  18.5 7.5 0  19 7.5 0  19.5 7.5 0  20 7.5 0  0 8 0  0.5 8 0  1 8 0  1.5 8 0  2 8 0  2.5 8 0  3 8 0  3.5 8 0  4 8 0  4.5 8 0  5 8 0  5.5 8 0  6 8 0  6.5 8 0  7 8 0  7.5 8 0  8 8 0  8.5 8 0  9 8 0  9.5 8 0  10 8 0  10.5 8 0  11 8 0  11.5 8 0  12 8 0  12.5 8 0  13 8 0  13.5 8 0  14 8 0  14.5 8 0  15 8 0  15.5 8 0  16 8 0  16.5 8 0  17 8 0  17.5 8 0  18 8 0  18.5 8 0  19 8 0  19.5 8 0  20 8 0  0 8.5 0  0.5 8.5 0  1 8.5 0  1.5 8.5 0  2 8.5 0  2.5 8.5 0  3 8.5 0  3.5 8.5 0  4 8.5 0  4.5 8.5 0  5 8.5 0  5.5 8.5 0  6 8.5 0  6.5 8.5 0  7 8.5 0  7.5 8.5 0  8 8.5 0  8.5 8.5 0  9 8.5 0  9.5 8.5 0  10 8.5 0  10.5 8.5 0  11 8.5 0  11.5 8.5 0  12 8.5 0  12.5 8.5 0  13 8.5 0  13.5 8.5 0  14 8.5 0  14.5 8.5 0  15 8.5 0  15.5 8.5 0  16 8.5 0  16.5 8.5 0  17 8.5 0  17.5 8.5 0  18 8.5 0  18.5 8.5 0  19 8.5 0  19.5 8.5 0  20 8.5 0  0 9 0  0.5 9 0  1 9 0  1.5 9 0  2 9 0  2.5 9 0  3 9 0  3.5 9 0  4 9 0  4.5 9 0  5 9 0  5.5 9 0  6 9 0  6.5 9 0  7 9 0  7.5 9 0  8 9 0  8.5 9 0  9 9 0  9.5 9 0  10 9 0  10.5 9 0  11 9 0  11.5 9 0  12 9 0  12.5 9 0  13 9 0  13.5 9 0  14 9 0  14.5 9 0  15 9 0  15.5 9 0  16 9 0  16.5 9 0  17 9 0  17.5 9 0  18 9 0  18.5 9 0  19 9 0  19.5 9 0  20 9 0  0 9.5 0  0.5 9.5 0  1 9.5 0  1.5 9.5 0  2 9.5 0  2.5 9.5 0  3 9.5 0  3.5 9.5 0  4 9.5 0  4.5 9.5 0  5 9.5 0  5.5 9.5 0  6 9.5 0  6.5 9.5 0  7 9.5 0  7.5 9.5 0  8 9.5 0  8.5 9.5 0  9 9.5 0  9.5 9.5 0  10 9.5 0  10.5 9.5 0  11 9.5 0  11.5 9.5 0  12 9.5 0  12.5 9.5 0  13 9.5 0  13.5 9.5 0  14 9.5 0  14.5 9.5 0  15 9.5 0  15.5 9.5 0  16 9.5 0  16.5 9.5 0  17 9.5 0  17.5 9.5 0  18 9.5 0  18.5 9.5 0  19 9.5 0  19.5 9.5 0  20 9.5 0  0 10 0  0.5 10 0  1 10 0  1.5 10 0  2 10 0  2.5 10 0  3 10 0  3.5 10 0  4 10 0  4.5 10 0  5 10 0  5.5 10 0  6 10 0  6.5 10 0  7 10 0  7.5 10 0  8 10 0  8.5 10 0  9 10 0  9.5 10 0  10 10 0  10.5 10 0  11 10 0  11.5 10 0  12 10 0  12.5 10 0  13 10 0  13.5 10 0  14 10 0  14.5 10 0  15 10 0  15.5 10 0  16 10 0  16.5 10 0  17 10 0  17.5 10 0  18 10 0  18.5 10 0  19 10 0  19.5 10 0  20 10 0  0 10.5 0  0.5 10.5 0  1 10.5 0  1.5 10.5 0  2 10.5 0  2.5 10.5 0  3 10.5 0  3.5 10.5 0  4 10.5 0  4.5 10.5 0  5 10.5 0  5.5 10.5 0  6 10.5 0  6.5 10.5 0  7 10.5 0  7.5 10.5 0  8 10.5 0  8.5 10.5 0  9 10.5 0  9.5 10.5 0  10 10.5 0  10.5 10.5 0  11 10.5 0  11.5 10.5 0  12 10.5 0  12.5 10.5 0  13 10.5 0  13.5 10.5 0  14 10.5 0  14.5 10.5 0  15 10.5 0  15.5 10.5 0  16 10.5 0  16.5 10.5 0  17 10.5 0  17.5 10.5 0  18 10.5 0  18.5 10.5 0  19 10.5 0  19.5 10.5 0  20 10.5 0  0 11 0  0.5 11 0  1 11 0  1.5 11 0  2 11 0  2.5 11 0  3 11 0  3.5 11 0  4 11 0  4.5 11 0  5 11 0  5.5 11 0  6 11 0  6.5 11 0  7 11 0  7.5 11 0  8 11 0  8.5 11 0  9 11 0  9.5 11 0  10 11 0  10.5 11 0  11 11 0  11.5 11 0  12 11 0  12.5 11 0  13 11 0  13.5 11 0  14 11 0  14.5 11 0  15 11 0  15.5 11 0  16 11 0  16.5 11 0  17 11 0  17.5 11 0  18 11 0  18.5 11 0  19 11 0  19.5 11 0  20 11 0  0 11.5 0  0.5 11.5 0  1 11.5 0  1.5 11.5 0  2 11.5 0  2.5 11.5 0  3 11.5 0  3.5 11.5 0  4 11.5 0  4.5 11.5 0  5 11.5 0  5.5 11.5 0  6 11.5 0  6.5 11.5 0  7 11.5 0  7.5 11.5 0  8 11.5 0  8.5 11.5 0  9 11.5 0  9.5 11.5 0  10 11.5 0  10.5 11.5 0  11 11.5 0  11.5 11.5 0  12 11.5 0  12.5 11.5 0  13 11.5 0  13.5 11.5 0  14 11.5 0  14.5 11.5 0  15 11.5 0  15.5 11.5 0  16 11.5 0  16.5 11.5 0  17 11.5 0  17.5 11.5 0  18 11.5 0  18.5 11.5 0  19 11.5 0  19.5 11.5 0  20 11.5 0  0 12 0  0.5 12 0  1 12 0  1.5 12 0  2 12 0  2.5 12 0  3 12 0  3.5 12 0  4 12 0  4.5 12 0  5 12 0  5.5 12 0  6 12 0  6.5 12 0  7 12 0  7.5 12 0  8 12 0  8.5 12 0  9 12 0  9.5 12 0  10 12 0  10.5 12 0  11 12 0  11.5 12 0  12 12 0  12.5 12 0  13 12 0  13.5 12 0  14 12 0  14.5 12 0  
[...]
<PointData  Vectors="f_5623-0"> 
<DataArray  type="Float64"  Name="f_5623-0"  NumberOfComponents="3" format="ascii">0.0000000000000000e+00 0.0000000000000000e+00 0.0000000000000000e+00  2.5443996332407572e-06 0.0000000000000000e+00 0.0000000000000000e+00  1.2925196312871770e-05 0.0000000000000000e+00 0.0000000000000000e+00  4.1914205704951376e-05 0.0000000000000000e+00 0.0000000000000000e+00  9.8741314964589263e-05 0.0000000000000000e+00 0.0000000000000000e+00  1.9239181348437555e-04 0.0000000000000000e+00 0.0000000000000000e+00  3.3162882538522072e-04 0.0000000000000000e+00 0.0000000000000000e+00  5.2491511088040982e-04 0.0000000000000000e+00 0.0000000000000000e+00  7.8031799554246367e-04 0.0000000000000000e+00 0.0000000000000000e+00  1.1053960740834221e-03 0.0000000000000000e+00 0.0000000000000000e+00  1.5070605897618597e-03 0.0000000000000000e+00 0.0000000000000000e+00  1.9914032627352508e-03 0.0000000000000000e+00 0.0000000000000000e+00  2.5634806915606615e-03 0.0000000000000000e+00 0.0000000000000000e+00  3.2270432342198139e-03 0.0000000000000000e+00 0.0000000000000000e+00  3.9841936085457342e-03 0.0000000000000000e+00 0.0000000000000000e+00  4.8349574118280031e-03 0.0000000000000000e+00 0.0000000000000000e+00  5.7767444420362144e-03 0.0000000000000000e+00 0.0000000000000000e+00  6.8036762760421985e-03 0.0000000000000000e+00 0.0000000000000000e+00  7.9057522986297566e-03 0.0000000000000000e+00 0.0000000000000000e+00  9.0678237015252468e-03 0.0000000000000000e+00 0.0000000000000000e+00  1.0268343495939051e-02 0.0000000000000000e+00 0.0000000000000000e+00  1.1477861148598683e-02 0.0000000000000000e+00 0.0000000000000000e+00  1.2657234173598984e-02 0.0000000000000000e+00 0.0000000000000000e+00  1.3755537284884500e-02 0.0000000000000000e+00 0.0000000000000000e+00  1.4707664182110856e-02 0.0000000000000000e+00 0.0000000000000000e+00  1.5431639476104368e-02 0.0000000000000000e+00 0.0000000000000000e+00  1.5825690304616648e-02 0.0000000000000000e+00 0.0000000000000000e+00  1.5765169908962224e-02 0.0000000000000000e+00 0.0000000000000000e+00  1.5099478642921254e-02 0.0000000000000000e+00 0.0000000000000000e+00  1.3649189196166325e-02 0.0000000000000000e+00 0.0000000000000000e+00  1.1203646675085312e-02 0.0000000000000000e+00 0.0000000000000000e+00  7.5193710116880147e-03 0.0000000000000000e+00 0.0000000000000000e+00  2.3196252377842511e-03 0.0000000000000000e+00 0.0000000000000000e+00  -4.7044881444124531e-03 0.0000000000000000e+00 0.0000000000000000e+00  -1.3891095336084574e-02 0.0000000000000000e+00 0.0000000000000000e+00  -2.5602595137221226e-02 0.0000000000000000e+00 0.0000000000000000e+00  -4.0218667684289257e-02 0.0000000000000000e+00 0.0000000000000000e+00  -5.8127440985097714e-02 0.0000000000000000e+00 0.0000000000000000e+00  -7.9715117913509673e-02 0.0000000000000000e+00 0.0000000000000000e+00  -1.0535385526426921e-01 0.0000000000000000e+00 0.0000000000000000e+00  -1.3538482690323000e-01 0.0000000000000000e+00 0.0000000000000000e+00  0.0000000000000000e+00 2.5443996287791586e-06 0.0000000000000000e+00  -3.5680346953671542e-06 -3.5680346983298544e-06 0.0000000000000000e+00  2.5459068071490395e-06 -1.8374595412492375e-05 0.0000000000000000e+00  2.7040840062360408e-05 -4.2010149404773010e-05 0.0000000000000000e+00  7.9237733172184545e-05 -7.4709268253679028e-05 0.0000000000000000e+00  1.6821189063800891e-04 -1.1646466595161151e-04 0.0000000000000000e+00  3.0276263634912345e-04 -1.6713473136679779e-04 0.0000000000000000e+00  4.9136887248271504e-04 -2.2650092210464145e-04 0.0000000000000000e+00  7.4210832213551260e-04 -2.9428609093514249e-04 0.0000000000000000e+00  1.0625492480441417e-03 -3.7015796680499519e-04 0.0000000000000000e+00  1.4596136792495737e-03 -4.5372762069602709e-04 0.0000000000000000e+00  1.9394060046084999e-03 -5.4454622451413463e-04 0.0000000000000000e+00  2.5069977246935560e-03 -6.4210121556450490e-04 0.0000000000000000e+00  3.1661564865934906e-03 -7.4581230581795440e-04 0.0000000000000000e+00  3.9190047138252517e-03 -8.5502758140660576e-04 0.0000000000000000e+00  4.7655900520267780e-03 -9.6901989086080039e-04 0.0000000000000000e+00  5.7033465139785279e-03 -1.0869837214714647e-03 0.0000000000000000e+00  6.7264217729847975e-03 -1.2080327795453330e-03 0.0000000000000000e+00  7.8248427903652492e-03 -1.3311985133648379e-03 0.0000000000000000e+00  8.9834892911037582e-03 -1.4554298419316727e-03 0.0000000000000000e+00  1.0180843132711557e-02 -1.5795943773362991e-03 0.0000000000000000e+00  1.1387482190841585e-02 -1.7024814508088514e-03 0.0000000000000000e+00  1.2564291124607982e-02 -1.8228072704662352e-03 0.0000000000000000e+00  1.3660369681012113e-02 -1.9392225482458996e-03 0.0000000000000000e+00  1.4610633694020799e-02 -2.0503229295066316e-03 0.0000000000000000e+00  1.5333126398990227e-02 -2.1546625319219964e-03 0.0000000000000000e+00  1.5726089753919585e-02 -2.2507708405281384e-03 0.0000000000000000e+00  1.5664888190881930e-02 -2.3371730973345260e-03 0.0000000000000000e+00  1.4998930400997456e-02 -2.4124141525314743e-03 0.0000000000000000e+00  1.3548795994799002e-02 -2.4750854963985656e-03 0.0000000000000000e+00  1.1103837595086048e-02 -2.5238548648244437e-03 0.0000000000000000e+00  7.4205855135976023e-03 -2.5574974242974094e-03 0.0000000000000000e+00  2.2223178985038422e-03 -2.5749271438332026e-03 0.0000000000000000e+00  -4.7998425280523990e-03 -2.5752266384316599e-03 0.0000000000000000e+00  -1.3983999678955422e-02 -2.5576736327894280e-03 0.0000000000000000e+00  -2.5692538311104442e-02 -2.5217622771910092e-03 0.0000000000000000e+00  -4.0305161159575428e-02 -2.4672172846115941e-03 0.0000000000000000e+00  -5.8210142246666749e-02 -2.3939947734565397e-03 0.0000000000000000e+00  -7.9794289474425878e-02 -2.3022404232687110e-03 0.0000000000000000e+00  -1.0543247087113061e-01 -2.1920760396668851e-03 0.0000000000000000e+00  -1.3547893375073389e-01 -2.0627924811256965e-03 0.0000000000000000e+00  0.0000000000000000e+00 1.2925196306533761e-05 0.0000000000000000e+00  -1.8374595412772326e-05 2.5459068070223954e-06 0.0000000000000000e+00  -2.6461971448267419e-05 -2.6461971447004019e-05 0.0000000000000000e+00  -1.5987414780108976e-05 -7.3817314192425225e-05 0.0000000000000000e+00  2.2195229691248711e-05 -1.3943373866182656e-04 0.0000000000000000e+00  9.7132827016430562e-05 -2.2312926934726676e-04 0.0000000000000000e+00  2.1763997230467289e-04 -3.2460388573400710e-04 0.0000000000000000e+00  3.9221877254868621e-04 -4.4343816918552539e-04 0.0000000000000000e+00  6.2897208434390458e-04 -5.7909709383020325e-04 0.0000000000000000e+00  9.3549600500400683e-04 -7.3093127527245022e-04 0.0000000000000000e+00  1.3187447000357678e-03 -8.9817454273170719e-04 0.0000000000000000e+00  1.7848602832530808e-03 -1.0799388302922047e-03 0.0000000000000000e+00  2.3389584410888130e-03 -1.2752075106454231e-03 0.0000000000000000e+00  2.9848579935082054e-03 -1.4828280135152242e-03 0.0000000000000000e+00  3.7247397612236084e-03 -1.7015043442869895e-03 0.0000000000000000e+00  4.5587169851580237e-03 -1.9297900006312730e-03 0.0000000000000000e+00  5.4842961831170359e-03 -2.1660817448798447e-03 0.0000000000000000e+00  6.4957038802421945e-03 -2.4086146928551959e-03 0.0000000000000000e+00  7.5830513808434318e-03 -2.6554592050875929e-03 0.0000000000000000e+00  8.7313070774947422e-03 -2.9045201013007775e-03 0.0000000000000000e+00  9.9190443296996115e-03 -3.1535387565553049e-03 0.0000000000000000e+00  1.1116933533087982e-02 -3.4000986722685419e-03 0.0000000000000000e+00  1.2285950754884124e-02 -3.6416351423651664e-03 0.0000000000000000e+00  1.3375283628474243e-02 -3.8754496487350340e-03 0.0000000000000000e+00  1.4319929721082024e-02 -4.0987296128849092e-03 0.0000000000000000e+00  1.5038005081546979e-02 -4.3085740911291441e-03 0.0000000000000000e+00  1.5427812772952040e-02 -4.5020259147421724e-03 0.0000000000000000e+00  1.5364763946747408e-02 -4.6761106234181598e-03 0.0000000000000000e+00  1.4698297198623724e-02 -4.8278822985471136e-03 0.0000000000000000e+00  1.3249003160747865e-02 -4.9544760478381711e-03 0.0000000000000000e+00  1.0806224933243954e-02 -5.0531664086326689e-03 0.0000000000000000e+00  7.1264614256114148e-03 -5.1214303242404138e-03 0.0000000000000000e+00  1.9329362032840961e-03 -5.1570126329923277e-03 0.0000000000000000e+00  -5.0833076811176575e-03 -5.1579912432870639e-03 0.0000000000000000e+00  -1.4260482657797705e-02 -5.1228383699283330e-03 0.0000000000000000e+00  -2.5961118863078139e-02 -5.0504732125693447e-03 0.0000000000000000e+00  -4.0565118061308338e-02 -4.9402996608851578e-03 0.0000000000000000e+00  -5.8461039881706235e-02 -4.7922193137987261e-03 0.0000000000000000e+00  -8.0036114823834631e-02 -4.6066100516392273e-03 0.0000000000000000e+00  -1.0566571413716307e-01 -4.3843069098530377e-03 0.0000000000000000e+00  -1.3570309271312375e-01 -4.1269681280026432e-03 0.0000000000000000e+00  0.0000000000000000e+00 4.1914205701649039e-05 0.0000000000000000e+00  -4.2010149406044840e-05 2.7040840061199811e-05 0.0000000000000000e+00  -7.3817314193550302e-05 -1.5987414780875887e-05 0.0000000000000000e+00  -8.6849471122623045e-05 -8.6849471121273878e-05 0.0000000000000000e+00  -7.2104542052278916e-05 -1.8527110558042757e-04 0.0000000000000000e+00  -2.0577165838625045e-05 -3.1089279271966037e-04 0.0000000000000000e+00  7.6543352216945567e-05 -4.6321773167013185e-04 0.0000000000000000e+00  2.2777512818650519e-04 -6.4160076914619431e-04 0.0000000000000000e+00  4.4125011786942518e-04 -8.4524149139638338e-04 0.0000000000000000e+00  7.2460418341310025e-04 -1.0731766265980518e-03 0.0000000000000000e+00  1.0848415799494184e-03 -1.3242713063768004e-03 0.0000000000000000e+00  1.5281652980143508e-03 -1.5972091560822587e-03 0.0000000000000000e+00  2.0597633296476634e-03 -1.8904814405385287e-03 0.0000000000000000e+00  2.6835387626157605e-03 -2.2023756851445022e-03 0.0000000000000000e+00  3.4017689353655861e-03 -2.5309642975925987e-03 0.0000000000000000e+00  4.2146758233111972e-03 -2.8740937712305992e-03 0.0000000000000000e+00  5.1198864889538424e-03 -3.2293750924776315e-03 0.0000000000000000e+00  6.1117589874255234e-03 -3.5941760179700895e-03 0.0000000000000000e+00  7.1805458532029770e-03 -3.9656159364886206e-03 0.0000000000000000e+00  8.3113646262478989e-03 -4.3405640845473560e-03 0.0000000000000000e+00  9.4829434191917739e-03 -4.7156419384602509e-03 0.0000000000000000e+00  1.0666110127315706e-02 -5.0872306559646835e-03 0.0000000000000000e+00  1.1821997654198172e-02 -5.4514844814248179e-03 0.0000000000000000e+00  1.2899945864682148e-02 -5.8043510545769915e-03 0.0000000000000000e+00  1.3835095524644120e-02 -6.1415995651778925e-03 0.0000000000000000e+00  1.4545692011053596e-02 -6.4588576632443901e-03 0.0000000000000000e+00  1.4930148707183353e-02 -6.7516579497151254e-03 0.0000000000000000e+00  1.4863962782226963e-02 -7.0154947109420072e-03 0.0000000000000000e+00  1.4196629265967538e-02 -7.2458912912076734e-03 0.0000000000000000e+00  1.2748760559674397e-02 -7.4384780813468998e-03 0.0000000000000000e+00  1.0309682170981750e-02 -7.5890804984795612e-03 0.0000000000000000e+00  6.6358319028440695e-03 -7.6938155115520660e-03 0.0000000000000000e+00  1.4503252028696969e-03 -7.7491942204589480e-03 0.0000000000000000e+00  -5.5559527864422710e-03 -7.7522267494286494e-03 0.0000000000000000e+00  -1.4721424171138928e-02 -7.7005243343411436e-03 0.0000000000000000e+00  -2.6408881250596965e-02 -7.5923921270370292e-03 0.0000000000000000e+00  -4.0998538202767332e-02 -7.4269055022093081e-03 0.0000000000000000e+00  -5.8879307192862128e-02 -7.2039649574990620e-03 0.0000000000000000e+00  -8.0438782125487232e-02 -6.9243380103655230e-03 0.0000000000000000e+00  -1.0605264163505056e-01 -6.5897382097168753e-03 0.0000000000000000e+00  -1.3607438207091282e-01 -6.2030603903347479e-03 0.0000000000000000e+00  0.0000000000000000e+00 9.8741314964208234e-05 0.0000000000000000e+00  -7.4709268255635308e-05 7.9237733170620312e-05 0.0000000000000000e+00  -1.3943373866307432e-04 2.2195229692131170e-05 0.0000000000000000e+00  -1.8527110558331890e-04 -7.2104542049790699e-05 0.0000000000000000e+00  -2.0326504057085792e-04 -2.0326504056993356e-04 0.0000000000000000e+00  -1.8444024061815226e-04 -3.7077279738888366e-04 0.0000000000000000e+00  -1.1998656446986106e-04 -5.7394831500648706e-04 0.0000000000000000e+00  -1.3668275826936606e-06 -8.1192748814596163e-04 0.0000000000000000e+00  1.7958587382295346e-04 -1.0836491634220134e-03 0.0000000000000000e+00  4.3055754148385366e-04 -1.3878426416735186e-03 0.0000000000000000e+00  7.5861804643261000e-04 -1.7230139068129032e-03 0.0000000000000000e+00  1.1700520930129244e-03 -2.0874306661446936e-03 0.0000000000000000e+00  1.6701461669834993e-03 -2.4791065715592205e-03 0.0000000000000000e+00  2.2629191909337276e-03 -2.8957850863301324e-03 0.0000000000000000e+00  2.9507819825714647e-03 -3.3349235482755197e-03 0.0000000000000000e+00  3.7341075771508609e-03 -3.7936780718119999e-03 0.0000000000000000e+00  4.6106911548661018e-03 -4.2688900242692047e-03 0.0000000000000000e+00  5.5750748844070001e-03 -4.7570749022140587e-03 0.0000000000000000e+00  6.6177097362531195e-03 -5.2544145219266137e-03 0.0000000000000000e+00  7.7239236596373158e-03 -5.7567535242521624e-03 0.0000000000000000e+00  8.8726640702563378e-03 -6.2596012759675509e-03 0.0000000000000000e+00  1.0034983209205189e-02 -6.7581403258700993e-03 0.0000000000000000e+00  1.1172238722769331e-02 -7.2472426394330734e-03 0.0000000000000000e+00  1.2233990174712250e-02 -7.7214948865439482e-03 0.0000000000000000e+00  1.3155586780271825e-02 -8.1752340839020901e-03 0.0000000000000000e+00  1.3855464210785188e-02 -8.6025948848876925e-03 0.0000000000000000e+00  1.4232200491416519e-02 -8.9975697450899398e-03 0.0000000000000000e+00  1.4161423847141500e-02 -9.3540830408655930e-03 0.0000000000000000e+00  1.3492718617442279e-02 -9.6660799377626776e-03 0.0000000000000000e+00  1.2046736648924864e-02 -9.9276303374020818e-03 0.0000000000000000e+00  9.6127852834337179e-03 -1.0133047508314863e-02 0.0000000000000000e+00  5.9472195682923890e-03 -1.0277019964366385e-02 0.0000000000000000e+00  7.7300187066965372e-04 -1.0354753759167093e-02 0.0000000000000000e+00  -6.2192099688678868e-03 -1.0362120649959280e-02 0.0000000000000000e+00  -1.5368140836399494e-02 -1.0295805715146090e-02 0.0000000000000000e+00  -2.7036958776187552e-02 -1.0153446395324242e-02 0.0000000000000000e+00  -4.1606319022964147e-02 -9.9337544289573223e-03 0.0000000000000000e+00  -5.9465626870981371e-02 -9.6366142078974718e-03 0.0000000000000000e+00  -8.1003006851491172e-02 -9.2631562648537377e-03 0.0000000000000000e+00  -1.0659470424744434e-01 -8.8158036081384412e-03 0.0000000000000000e+00  -1.3659485582990591e-01 -8.2982289667153271e-03 0.0000000000000000e+00  0.0000000000000000e+00 1.9239181348702954e-04 0.0000000000000000e+00  -1.1646466595427862e-04 1.6821189063621919e-04 0.0000000000000000e+00  -2.2312926934824545e-04 9.7132827017765920e-05 0.0000000000000000e+00  -3.1089279272252527e-04 -2.0577165837313628e-05 0.0000000000000000e+00  -3.7077279738843735e-04 -1.8444024061951405e-04 0.0000000000000000e+00  -3.9380900048310743e-04 -3.9380900048452861e-04 0.0000000000000000e+00  -3.7118749585885765e-04 -6.4783664305179502e-04 0.0000000000000000e+00  -2.9434762400888680e-04 -9.4545471936630706e-04 0.0000000000000000e+00  -1.5508055386889599e-04 -1.2853560599763994e-03 0.0000000000000000e+00  5.4360298683457654e-05 -1.6659778377310325e-03 0.0000000000000000e+00  3.4112503406717910e-04 -2.0854833044358714e-03 0.0000000000000000e+00  7.1159942532639947e-04 -2.5417421205096735e-03 0.0000000000000000e+00  1.1711929645374386e-03 -3.0323096565113153e-03 0.0000000000000000e+00  1.7240703647699910e-03 -3.5544058269392719e-03 0.0000000000000000e+00  2.3728114991475348e-03 -4.1048941272273289e-03 0.0000000000000000e+00  3.1179817355886882e-03 -4.6802616465943195e-03 0.0000000000000000e+00  3.9575913079811101e-03 -5.2766009374527155e-03 0.0000000000000000e+00  4.8864189365486494e-03 -5.8895947361979756e-03 0.0000000000000000e+00  5.8951716553914185e-03 -6.5145046476874531e-03 0.0000000000000000e+00  6.9694501509624789e-03 -7.1461650235552345e-03 0.0000000000000000e+00  8.0884874768977887e-03 -7.7789833799368178e-03 0.0000000000000000e+00  9.2236296368056296e-03 -8.4069488104557728e-03 0.0000000000000000e+00  1.0336530333838153e-02 -9.0236499520022443e-03 0.0000000000000000e+00  1.1377040572047083e-02 -9.6223041491289279e-03 0.0000000000000000e+00  1.2280788403994694e-02 -1.0195799529206663e-02 0.0000000000000000e+00  1.2966466719718444e-02 -1.0736751730925136e-02 0.0000000000000000e+00  1.3332879197934262e-02 -1.1237576999465818e-02 0.0000000000000000e+00  1.3255837439292900e-02 -1.1690583234092632e-02 0.0000000000000000e+00  1.2585055649735900e-02 -1.2088080290775271e-02 0.0000000000000000e+00  1.1141250633765407e-02 -1.2422510323894759e-02 0.0000000000000000e+00  8.7137186889787634e-03 -1.2686598101586179e-02 0.0000000000000000e+00  5.0587176441568935e-03 -1.2873519951652141e-02 0.0000000000000000e+00  -1.0098200713517063e-04 -1.2977088229809374e-02 0.0000000000000000e+00  -7.0750148184407138e-03 -1.2991945980747797e-02 0.0000000000000000e+00  -1.6202500799119595e-02 -1.2913763979401574e-02 0.0000000000000000e+00  -2.7847103387800911e-02 -1.2739429998810602e-02 0.0000000000000000e+00  -4.2390065797624429e-02 -1.2467218473235635e-02 0.0000000000000000e+00  -6.0221461492886652e-02 -1.2096927756709831e-02 0.0000000000000000e+00  -8.1730146858793054e-02 -1.1629969541935063e-02 0.0000000000000000e+00  -1.0729313125982830e-01 -1.1069381787296729e-02 0.0000000000000000e+00  -1.3726523082501968e-01 -1.0419695190164545e-02 0.0000000000000000e+00  0.0000000000000000e+00 3.3162882538242814e-04 0.0000000000000000e+00  -1.6713473136410327e-04 3.0276263635047561e-04 0.0000000000000000e+00  -3.2460388573247545e-04 2.1763997230469500e-04 0.0000000000000000e+00  -4.6321773166906977e-04 7.6543352218609858e-05 0.0000000000000000e+00  -5.7394831500466364e-04 -1.1998656447047103e-04 0.0000000000000000e+00  -6.4783664305013955e-04 -3.7118749585903014e-04 0.0000000000000000e+00  -6.7606170940054909e-04 -6.7606170940215143e-04 0.0000000000000000e+00  -6.5003665465344842e-04 -1.0333535677032020e-03 0.0000000000000000e+00  -5.6150555191872157e-04 -1.4415286932886163e-03 0.0000000000000000e+00  -4.0265253268117237e-04 -1.8987526981903409e-03 0.0000000000000000e+00  -1.6623440470881954e-04 -2.4028683543013455e-03 0.0000000000000000e+00  1.5425321118479752e-04 -2.9513710885577852e-03 0.0000000000000000e+00  5.6436548251186959e-04 -3.5413831738460803e-03 0.0000000000000000e+00  1.0684411008531167e-03 -4.1696272259241973e-03 0.0000000000000000e+00  1.6692630032323704e-03 -4.8323997712564149e-03 0.0000000000000000e+00  2.3676289211752325e-03 -5.5255457840594274e-03 0.0000000000000000e+00  3.1618102833851237e-03 -6.2444352242920480e-03 0.0000000000000000e+00  4.0468745682268811e-03 -6.9839427482941809e-03 0.0000000000000000e+00  5.0138429459859989e-03 -7.7384319100956660e-03 0.0000000000000000e+00  6.0486523978944906e-03 -8.5017453219450815e-03 0.0000000000000000e+00  7.1308900655000420e-03 -9.2672023954350289e-03 0.0000000000000000e+00  8.2322682201039395e-03 -1.0027606436340071e-02 0.0000000000000000e+00  9.3148120649042473e-03 -1.0775263013799019e-02 0.0000000000000000e+00  1.0328740992150854e-02 -1.1502011662834799e-02 0.0000000000000000e+00  1.1210038560020633e-02 -1.2199273098914550e-02 0.0000000000000000e+00  1.1877729100298696e-02 -1.2858114208113195e-02 0.0000000000000000e+00  1.2230911156573029e-02 -1.3469333097435376e-02 0.0000000000000000e+00  1.2145640937173302e-02 -1.4023566399366621e-02 0.0000000000000000e+00  1.1471812430468686e-02 -1.4511420749324846e-02 0.0000000000000000e+00  1.0030242371132800e-02 -1.4923629792029991e-02 0.0000000000000000e+00  7.6102322629445730e-03 -1.5251237095419338e-02 0.0000000000000000e+00  3.9679365256895778e-03 -1.5485803825873326e-02 0.0000000000000000e+00  -1.1740982420722255e-03 -1.5619637870100201e-02 0.0000000000000000e+00  -8.1258596096612998e-03 -1.5646038281223084e-02