<?xml version="1.0"?>
<VTKFile type="UnstructuredGrid"  version="0.1"  >
<UnstructuredGrid>
<Piece  NumberOfPoints="1681" NumberOfCells="3200">
<Points>
<DataArray  type="Float64"  NumberOfComponents="3"  format="ascii">0 0 0  0.5 0 0  1 0 0  1.5 0 0  2 0 0  2.5 0 0  3 0 0  3.5 0 0  4 0 0  4.5 0 0  5 0 0  5.5 0 0  6 0 0  6.5 0 0  7 0 0  7.5 0 0  8 0 0  8.5 0 0  9 0 0  9.5 0 0  10 0 0  10.5 0 0  11 0 0  11.5 0 0  12 0 0  12.5 0 0  13 0 0  13.5 0 0  14 0 0  14.5 0 0  15 0 0  15.5 0 0  16 0 0  16.5 0 0  17 0 0  17.5 0 0  18 0 0  18.5 0 0  19 0 0  19.5 0 0  20 0 0  0 0.5 0  0.5 0.5 0  1 0.5 0  1.5 0.5 0  2 0.5 0  2.5 0.5 0  3 0.5 0  3.5 0.5 0  4 0.5 0  4.5 0.5 0  5 0.5 0  5.5 0.5 0  6 0.5 0  6.5 0.5 0  7 0.5 0  7.5 0.5 0  8 0.5 0  8.5 0.5 0  9 0.5 0  9.5 0.5 0  10 0.5 0  10.5 0.5 0  11 0.5 0  11.5 0.5 0  12 0.5 0  12.5 0.5 0  13 0.5 0  13.5 0.5 0  14 0.5 0  14.5 0.5 0  15 0.5 0  15.5 0.5 0  16 0.5 0  16.5 0.5 0  17 0.5 0  17.5 0.5 0  18 0.5 0  18.5 0.5 0  19 0.5 0  19.5 0.5 0  20 0.5 0  0 1 0  0.5 1 0  1 1 0  1.5 1 0  2 1 0  2.5 1 0  3 1 0  3.5 1 0  4 1 0  4.5 1 0  5 1 0  5.5 1 0  6 1 0  6.5 1 0  7 1 0  7.5 1 0  8 1 0  8.5 1 0  9 1 0  9.5 1 0  10 1 0  10.5 1 0  11 1 0  11.5 1 0  12 1 0  12.5 1 0  13 1 0  13.5 1 0  14 1 0  14.5 1 0  15 1 0  15.5 1 0  16 1 0  16.5 1 0  17 1 0  17.5 1 0  18 1 0  18.5 1 0  19 1 0  19.5 1 0  20 1 0  0 1.5 0  0.5 1.5 0  1 1.5 0  1.5 1.5 0  2 1.5 0  2.5 1.5 0  3 1.5 0  3.5 1.5 0  4 1.5 0  4.5 1.5 0  5 1.5 0  5.5 1.5 0  6 1.5 0  6.5 1.5 0  7 1.5 0  7.5 1.5 0  8 1.5 0  8.5 1.5 0  9 1.5 0  9.5 1.5 0  10 1.5 0  10.5 1.5 0  11 1.5 0  11.5 1.5 0  12 1.5 0  12.5 1.5 0  13 1.5 0  13.5 1.5 0  14 1.5 0  14.5 1.5 0  15 1.5 0  15.5 1.5 0  16 1.5 0  16.5 1.5 0  17 1.5 0  17.5 1.5 0  18 1.5 0  18.5 1.5 0  19 1.5 0  19.5 1.5 0  20 1.5 0  0 2 0  0.5 2 0  1 2 0  1.5 2 0  2 2 0  2.5 2 0  3 2 0  3.5 2 0  4 2 0  4.5 2 0  5 2 0  5.5 2 0  6 2 0  6.5 2 0  7 2 0  7.5 2 0  8 2 0  8.5 2 0  9 2 0  9.5 2 0  10 2 0  10.5 2 0  11 2 0  11.5 2 0  12 2 0  12.5 2 0  13 2 0  13.5 2 0  14 2 0  14.5 2 0  15 2 0  15.5 2 0  16 2 0  16.5 2 0  17 2 0  17.5 2 0  18 2 0  18.5 2 0  19 2 0  19.5 2 0  20 2 0  0 2.5 0  0.5 2.5 0  1 2.5 0  1.5 2.5 0  2 2.5 0  2.5 2.5 0  3 2.5 0  3.5 2.5 0  4 2.5 0  4.5 2.5 0  5 2.5 0  5.5 2.5 0  6 2.5 0  6.5 2.5 0  7 2.5 0  7.5 2.5 0  8 2.5 0  8.5 2.5 0  9 2.5 0  9.5 2.5 0  10 2.5 0  10.5 2.5 0  11 2.5 0  11.5 2.5 0  12 2.5 0  12.5 2.5 0  13 2.5 0  13.5 2.5 0  14 2.5 0  14.5 2.5 0  15 2.5 0  15.5 2.5 0  16 2.5 0  16.5 2.5 0  17 2.5 0  17.5 2.5 0  18 2.5 0  18.5 2.5 0  19 2.5 0  19.5 2.5 0  20 2.5 0  0 3 0  0.5 3 0  1 3 0  1.5 3 0  2 3 0  2.5 3 0  3 3 0  3.5 3 0  4 3 0  4.5 3 0  5 3 0  5.5 3 0  6 3 0  6.5 3 0  7 3 0  7.5 3 0  8 3 0  8.5 3 0  9 3 0  9.5 3 0  10 3 0  10.5 3 0  11 3 0  11.5 3 0  12 3 0  12.5 3 0  13 3 0  13.5 3 0  14 3 0  14.5 3 0  15 3 0  15.5 3 0  16 3 0  16.5 3 0  17 3 0  17.5 3 0  18 3 0  18.5 3 0  19 3 0  19.5 3 0  20 3 0  0 3.5 0  0.5 3.5 0  1 3.5 0  1.5 3.5 0  2 3.5 0  2.5 3.5 0  3 3.5 0  3.5 3.5 0  4 3.5 0  4.5 3.5 0  5 3.5 0  5.5 3.5 0  6 3.5 0  6.5 3.5 0  7 3.5 0  7.5 3.5 0  8 3.5 0  8.5 3.5 0  9 3.5 0  9.5 3.5 0  10 3.5 0  10.5 3.5 0  11 3.5 0  11.5 3.5 0  12 3.5 0  12.5 3.5 0  13 3.5 0  13.5 3.5 0  14 3.5 0  14.5 3.5 0  15 3.5 0  15.5 3.5 0  16 3.5 0  16.5 3.5 0  17 3.5 0  17.5 3.5 0  18 3.5 0  18.5 3.5 0  19 3.5 0  19.5 3.5 0  20 3.5 0  0 4 0  0.5 4 0  1 4 0  1.5 4 0  2 4 0  2.5 4 0  3 4 0  3.5 4 0  4 4 0  4.5 4 0  5 4 0  5.5 4 0  6 4 0  6.5 4 0  7 4 0  7.5 4 0  8 4 0  8.5 4 0  9 4 0  9.5 4 0  10 4 0  10.5 4 0  11 4 0  11.5 4 0  12 4 0  12.5 4 0  13 4 0  13.5 4 0  14 4 0  14.5 4 0  15 4 0  15.5 4 0  16 4 0  16.5 4 0  17 4 0  17.5 4 0  18 4 0  18.5 4 0  19 4 0  19.5 4 0  20 4 0  0 4.5 0  0.5 4.5 0  1 4.5 0  1.5 4.5 0  2 4.5 0  2.5 4.5 0  3 4.5 0  3.5 4.5 0  4 4.5 0  4.5 4.5 0  5 4.5 0  5.5 4.5 0  6 4.5 0  6.5 4.5 0  7 4.5 0  7.5 4.5 0  8 4.5 0  8.5 4.5 0  9 4.5 0  9.5 4.5 0  10 4.5 0  10.5 4.5 0  11 4.5 0  11.5 4.5 0  12 4.5 0  12.5 4.5 0  13 4.5 0  13.5 4.5 0  14 4.5 0  14.5 4.5 0  15 4.5 0  15.5 4.5 0  16 4.5 0  16.5 4.5 0  17 4.5 0  17.5 4.5 0  18 4.5 0  18.5 4.5 0  19 4.5 0  19.5 4.5 0  20 4.5 0  0 5 0  0.5 5 0  1 5 0  1.5 5 0  2 5 0  2.5 5 0  3 5 0  3.5 5 0  4 5 0  4.5 5 0  5 5 0  5.5 5 0  6 5 0  6.5 5 0  7 5 0  7.5 5 0  8 5 0  8.5 5 0  9 5 0  9.5 5 0  10 5 0  10.5 5 0  11 5 0  11.5 5 0  12 5 0  12.5 5 0  13 5 0  13.5 5 0  14 5 0  14.5 5 0  15 5 0  15.5 5 0  16 5 0  16.5 5 0  17 5 0  17.5 5 0  18 5 0  18.5 5 0  19 5 0  19.5 5 0  20 5 0  0 5.5 0  0.5 5.5 0  1 5.5 0  1.5 5.5 0  2 5.5 0  2.5 5.5 0  3 5.5 0  3.5 5.5 0  4 5.5 0  4.5 5.5 0  5 5.5 0  5.5 5.5 0  6 5.5 0  6.5 5.5 0  7 5.5 0  7.5 5.5 0  8 5.5 0  8.5 5.5 0  9 5.5 0  9.5 5.5 0  10 5.5 0  10.5 5.5 0  11 5.5 0  11.5 5.5 0  12 5.5 0  12.5 5.5 0  13 5.5 0  13.5 5.5 0  14 5.5 0  14.5 5.5 0  15 5.5 0  15.5 5.5 0  16 5.5 0  16.5 5.5 0  17 5.5 0  17.5 5.5 0  18 5.5 0  18.5 5.5 0  19 5.5 0  19.5 5.5 0  20 5.5 0  0 6 0  0.5 6 0  1 6 0  1.5 6 0  2 6 0  2.5 6 0  3 6 0  3.5 6 0  4 6 0  4.5 6 0  5 6 0  5.5 6 0  6 6 0  6.5 6 0  7 6 0  7.5 6 0  8 6 0  8.5 6 0  9 6 0  9.5 6 0  10 6 0  10.5 6 0  11 6 0  11.5 6 0  12 6 0  12.5 6 0  13 6 0  13.5 6 0  14 6 0  14.5 6 0  15 6 0  15.5 6 0  16 6 0  16.5 6 0  17 6 0  17.5 6 0  18 6 0  18.5 6 0  19 6 0  19.5 6 0  20 6 0  0 6.5 0  0.5 6.5 0  1 6.5 0  1.5 6.5 0  2 6.5 0  2.5 6.5 0  3 6.5 0  3.5 6.5 0  4 6.5 0  4.5 6.5 0  5 6.5 0  5.5 6.5 0  6 6.5 0  6.5 6.5 0  7 6.5 0  7.5 6.5 0  8 6.5 0  8.5 6.5 0  9 6.5 0  9.5 6.5 0  10 6.5 0  10.5 6.5 0  11 6.5 0  11.5 6.5 0  12 6.5 0  12.5 6.5 0  13 6.5 0  13.5 6.5 0  14 6.5 0  14.5 6.5 0  15 6.5 0  15.5 6.5 0  16 6.5 0  16.5 6.5 0  17 6.5 0  17.5 6.5 0  18 6.5 0  18.5 6.5 0  19 6.5 0  19.5 6.5 0  20 6.5 0  0 7 0  0.5 7 0  1 7 0  1.5 7 0  2 7 0  2.5 7 0  3 7 0  3.5 7 0  4 7 0  4.5 7 0  5 7 0  5.5 7 0  6 7 0  6.5 7 0  7 7 0  7.5 7 0  8 7 0  8.5 7 0  9 7 0  9.5 7 0  10 7 0  10.5 7 0  11 7 0  11.5 7 0  12 7 0  12.5 7 0  13 7 0  13.5 7 0  14 7 0  14.5 7 0  15 7 0  15.5 7 0  16 7 0  16.5 7 0  17 7 0  17.5 7 0  18 7 0  18.5 7 0  19 7 0  19.5 7 0  20 7 0  0 7.5 0  0.5 7.5 0  1 7.5 0  1.5 7.5 0  2 7.5 0  2.5 7.5 0  3 7.5 0  3.5 7.5 0  4 7.5 0  4.5 7.5 0  5 7.5 0  5.5 7.5 0  6 7.5 0  6.5 7.5 0  7 7.5 0  7.5 7.5 0  8 7.5 0  8.5 7.5 0  9 7.5 0  9.5 7.5 0  10 7.5 0  10.5 7.5 0  11 7.5 0  11.5 7.5 0  12 7.5 0  12.5 7.5 0  13 7.5 0  13.5 7.5 0  14 7.5 0  14.5 7.5 0  15 7.5 0  15.5 7.5 0  16 7.5 0  16.5 7.5 0  17 7.5 0  17.5 7.5 0  18 7.5 0  18.5 7.5 0  19 7.5 0  19.5 7.5 0  20 7.5 0  0 8 0  0.5 8 0  1 8 0  1.5 8 0  2 8 0  2.5 8 0  3 8 0  3.5 8 0  4 8 0  4.5 8 0  5 8 0  5.5 8 0  6 8 0  6.5 8 0  7 8 0  7.5 8 0  8 8 0  8.5 8 0  9 8 0  9.5 8 0  10 8 0  10.5 8 0  11 8 0  11.5 8 0  12 8 0  12.5 8 0  13 8 0  13.5 8 0  14 8 0  14.5 8 0  15 8 0  15.5 8 0  16 8 0  16.5 8 0  17 8 0  17.5 8 0  18 8 0  18.5 8 0  19 8 0  19.5 8 0  20 8 0  0 8.5 0  0.5 8.5 0  1 8.5 0  1.5 8.5 0  2 8.5 0  2.5 8.5 0  3 8.5 0  3.5 8.5 0  4 8.5 0  4.5 8.5 0  5 8.5 0  5.5 8.5 0  6 8.5 0  6.5 8.5 0  7 8.5 0  7.5 8.5 0  8 8.5 0  8.5 8.5 0  9 8.5 0  9.5 8.5 0  10 8.5 0  10.5 8.5 0  11 8.5 0  11.5 8.5 0  12 8.5 0  12.5 8.5 0  13 8.5 0  13.5 8.5 0  14 8.5 0  14.5 8.5 0  15 8.5 0  15.5 8.5 0  16 8.5 0  16.5 8.5 0  17 8.5 0  17.5 8.5 0  18 8.5 0  18.5 8.5 0  19 8.5 0  19.5 8.5 0  20 8.5 0  0 9 0  0.5 9 0  1 9 0  1.5 9 0  2 9 0  2.5 9 0  3 9 0  3.5 9 0  4 9 0  4.5 9 0  5 9 0  5.5 9 0  6 9 0  6.5 9 0  7 9 0  7.5 9 0  8 9 0  8.5 9 0  9 9 0  9.5 9 0  10 9 0  10.5 9 0  11 9 0  11.5 9 0  12 9 0  12.5 9 0  13 9 0  13.5 9 0  14 9 0  14.5 9 0  15 9 0  15.5 9 0  16 9 0  16.5 9 0  17 9 0  17.5 9 0  18 9 0  18.5 9 0  19 9 0  19.5 9 0  20 9 0  0 9.5 0  0.5 9.5 0  1 9.5 0  1.5 9.5 0  2 9.5 0  2.5 9.5 0  3 9.5 0  3.5 9.5 0  4 9.5 0  4.5 9.5 0  5 9.5 0  5.5 9.5 0  6 9.5 0  6.5 9.5 0  7 9.5 0  7.5 9.5 0  8 9.5 0  8.5 9.5 0  9 9.5 0  9.5 9.5 0  10 9.5 0  10.5 9.5 0  11 9.5 0  11.5 9.5 0  12 9.5 0  12.5 9.5 0  13 9.5 0  13.5 9.5 0  14 9.5 0  14.5 9.5 0  15 9.5 0  15.5 9.5 0  16 9.5 0  16.5 9.5 0  17 9.5 0  17.5 9.5 0  18 9.5 0  18.5 9.5 0  19 9.5 0  19.5 9.5 0  20 9.5 0  0 10 0  0.5 10 0  1 10 0  1.5 10 0  2 10 0  2.5 10 0  3 10 0  3.5 10 0  4 10 0  4.5 10 0  5 10 0  5.5 10 0  6 10 0  6.5 10 0  7 10 0  7.5 10 0  8 10 0  8.5 10 0  9 10 0  9.5 10 0  10 10 0  10.5 10 0  11 10 0  11.5 10 0  12 10 0  12.5 10 0  13 10 0  13.5 10 0  14 10 0  14.5 10 0  15 10 0  15.5 10 0  16 10 0  16.5 10 0  17 10 0  17.5 10 0  18 10 0  18.5 10 0  19 10 0  19.5 10 0  20 10 0  0 10.5 0  0.5 10.5 0  1 10.5 0  1.5 10.5 0  2 10.5 0  2.5 10.5 0  3 10.5 0  3.5 10.5 0  4 10.5 0  4.5 10.5 0  5 10.5 0  5.5 10.5 0  6 10.5 0  6.5 10.5 0  7 10.5 0  7.5 10.5 0  8 10.5 0  8.5 10.5 0  9 10.5 0  9.5 10.5 0  10 10.5 0  10.5 10.5 0  11 10.5 0  11.5 10.5 0  12 10.5 0  12.5 10.5 0  13 10.5 0  13.5 10.5 0  14 10.5 0  14.5 10.5 0  15 10.5 0  15.5 10.5 0  16 10.5 0  16.5 10.5 0  17 10.5 0  17.5 10.5 0  18 10.5 0  18.5 10.5 0  19 10.5 0  19.5 10.5 0  20 10.5 0  0 11 0  0.5 11 0  1 11 0  1.5 11 0  2 11 0  2.5 11 0  3 11 0  3.5 11 0  4 11 0  4.5 11 0  5 11 0  5.5 11 0  6 11 0  6.5 11 0  7 11 0  7.5 11 0  8 11 0  8.5 11 0  9 11 0  9.5 11 0  10 11 0  10.5 11 0  11 11 0  11.5 11 0  12 11 0  12.5 11 0  13 11 0  13.5 11 0  14 11 0  14.5 11 0  15 11 0  15.5 11 0  16 11 0  16.5 11 0  17 11 0  17.5 11 0  18 11 0  18.5 11 0  19 11 0  19.5 11 0  20 11 0  0 11.5 0  0.5 11.5 0  1 11.5 0  1.5 11.5 0  2 11.5 0  2.5 11.5 0  3 11.5 0  3.5 11.5 0  4 11.5 0  4.5 11.5 0  5 11.5 0  5.5 11.5 0  6 11.5 0  6.5 11.5 0  7 11.5 0  7.5 11.5 0  8 11.5 0  8.5 11.5 0  9 11.5 0  9.5 11.5 0  10 11.5 0  10.5 11.5 0  11 11.5 0  11.5 11.5 0  12 11.5 0  12.5 11.5 0  13 11.5 0  13.5 11.5 0  14 11.5 0  14.5 11.5 0  15 11.5 0  15.5 11.5 0  16 11.5 0  16.5 11.5 0  17 11.5 0  17.5 11.5 0  18 11.5 0  18.5 11.5 0  19 11.5 0  19.5 11.5 0  20 11.5 0  0 12 0  0.5 12 0  1 12 0  1.5 12 0  2 12 0  2.5 12 0  3 12 0  3.5 12 0  4 12 0  4.5 12 0  5 12 0  5.5 12 0  6 12 0  6.5 12 0  7 12 0  7.5 12 0  8 12 0  8.5 12 0  9 12 0  9.5 12 0  10 12 0  10.5 12 0  11 12 0  11.5 12 0  12 12 0  12.5 12 0  13 12 0  13.5 12 0  14 12 0  14.5 12 0  
[...]
<PointData  Vectors="f_5623-0"> 
<DataArray  type="Float64"  Name="f_5623-0"  NumberOfComponents="3" format="ascii">0.0000000000000000e+00 0.0000000000000000e+00 0.0000000000000000e+00  7.0175654808085631e-07 0.0000000000000000e+00 0.0000000000000000e+00  1.1949305392803716e-05 0.0000000000000000e+00 0.0000000000000000e+00  4.8557533208434189e-05 0.0000000000000000e+00 0.0000000000000000e+00  1.2304819316591418e-04 0.0000000000000000e+00 0.0000000000000000e+00  2.4748921930530426e-04 0.0000000000000000e+00 0.0000000000000000e+00  4.3349128948158642e-04 0.0000000000000000e+00 0.0000000000000000e+00  6.9204939810867810e-04 0.0000000000000000e+00 0.0000000000000000e+00  1.0333504832432793e-03 0.0000000000000000e+00 0.0000000000000000e+00  1.4665443822243045e-03 0.0000000000000000e+00 0.0000000000000000e+00  1.9994670846027046e-03 0.0000000000000000e+00 0.0000000000000000e+00  2.6383041868487125e-03 0.0000000000000000e+00 0.0000000000000000e+00  3.3871810824772320e-03 0.0000000000000000e+00 0.0000000000000000e+00  4.2476647267046322e-03 0.0000000000000000e+00 0.0000000000000000e+00  5.2181600802232615e-03 0.0000000000000000e+00 0.0000000000000000e+00  6.2931827974253849e-03 0.0000000000000000e+00 0.0000000000000000e+00  7.4624886453999780e-03 0.0000000000000000e+00 0.0000000000000000e+00  8.7100398681355870e-03 0.0000000000000000e+00 0.0000000000000000e+00  1.0012789699510775e-02 0.0000000000000000e+00 0.0000000000000000e+00  1.1339269057389257e-02 0.0000000000000000e+00 0.0000000000000000e+00  1.2647964826839253e-02 0.0000000000000000e+00 0.0000000000000000e+00  1.3885487882399657e-02 0.0000000000000000e+00 0.0000000000000000e+00  1.4984541988583455e-02 0.0000000000000000e+00 0.0000000000000000e+00  1.5861722790209518e-02 0.0000000000000000e+00 0.0000000000000000e+00  1.6415199871717027e-02 0.0000000000000000e+00 0.0000000000000000e+00  1.6522364437009347e-02 0.0000000000000000e+00 0.0000000000000000e+00  1.6037559778257743e-02 0.0000000000000000e+00 0.0000000000000000e+00  1.4790049285752015e-02 0.0000000000000000e+00 0.0000000000000000e+00  1.2582413484036629e-02 0.0000000000000000e+00 0.0000000000000000e+00  9.1895976430311881e-03 0.0000000000000000e+00 0.0000000000000000e+00  4.3588472336953928e-03 0.0000000000000000e+00 0.0000000000000000e+00  -2.1892388439626368e-03 0.0000000000000000e+00 0.0000000000000000e+00  -1.0758345834672388e-02 0.0000000000000000e+00 0.0000000000000000e+00  -2.1672654714756417e-02 0.0000000000000000e+00 0.0000000000000000e+00  -3.5271620668671747e-02 0.0000000000000000e+00 0.0000000000000000e+00  -5.1903446014290575e-02 0.0000000000000000e+00 0.0000000000000000e+00  -7.1917512994575980e-02 0.0000000000000000e+00 0.0000000000000000e+00  -9.5656139600429096e-02 0.0000000000000000e+00 0.0000000000000000e+00  -1.2344595245160617e-01 0.0000000000000000e+00 0.0000000000000000e+00  -1.5558836586675590e-01 0.0000000000000000e+00 0.0000000000000000e+00  -1.9234573701157978e-01 0.0000000000000000e+00 0.0000000000000000e+00  0.0000000000000000e+00 7.0175654829312859e-07 0.0000000000000000e+00  -7.9312403888801959e-06 -7.9312403872116630e-06 0.0000000000000000e+00  -2.6525214295197285e-06 -2.8752439720932255e-05 0.0000000000000000e+00  2.7662937051235326e-05 -6.1944012277932958e-05 0.0000000000000000e+00  9.5662750421921739e-05 -1.0784626359972279e-04 0.0000000000000000e+00  2.1354385606600664e-04 -1.6645764630151148e-04 0.0000000000000000e+00  3.9296921185064023e-04 -2.3758601864563357e-04 0.0000000000000000e+00  6.4495700757774923e-04 -3.2093089471899467e-04 0.0000000000000000e+00  9.7970873018178844e-04 -4.1611024292220782e-04 0.0000000000000000e+00  1.4063873208270965e-03 -5.2266604825403626e-04 0.0000000000000000e+00  1.9328430920086974e-03 -6.4006265299054927e-04 0.0000000000000000e+00  2.5652782924415161e-03 -7.6768260797233968e-04 0.0000000000000000e+00  3.3078378151818444e-03 -9.0482161706935123e-04 0.0000000000000000e+00  4.1621112071972069e-03 -1.0506831821983603e-03 0.0000000000000000e+00  5.1265291953662973e-03 -1.2043732696287157e-03 0.0000000000000000e+00  6.1956363315389422e-03 -1.3648952446867881e-03 0.0000000000000000e+00  7.3592202529631553e-03 -1.5311453184696519e-03 0.0000000000000000e+00  8.6012777726781498e-03 -1.7019087714289134e-03 0.0000000000000000e+00  9.8987990020329448e-03 -1.8758572511372109e-03 0.0000000000000000e+00  1.1220353539792267e-02 -2.0515474795636240e-03 0.0000000000000000e+00  1.2524468145420020e-02 -2.2274217458746535e-03 0.0000000000000000e+00  1.3757794066829943e-02 -2.4018106017185607e-03 0.0000000000000000e+00  1.4853075195162891e-02 -2.5729382135011129e-03 0.0000000000000000e+00  1.5726946305479127e-02 -2.7389308552095521e-03 0.0000000000000000e+00  1.6277614421044202e-02 -2.8978290382630427e-03 0.0000000000000000e+00  1.6382505916368965e-02 -3.0476037621054407e-03 0.0000000000000000e+00  1.5895996583569466e-02 -3.1861773180203085e-03 0.0000000000000000e+00  1.4647379445429426e-02 -3.3114489746517029e-03 0.0000000000000000e+00  1.2439261784105624e-02 -3.4213257032072565e-03 0.0000000000000000e+00  9.0466128464685592e-03 -3.5137578509201206e-03 0.0000000000000000e+00  4.2166993124510763e-03 -3.5867793397879179e-03 0.0000000000000000e+00  -2.3298618499304697e-03 -3.6385515632051924e-03 0.0000000000000000e+00  -1.0896742190769745e-02 -3.6674097103635886e-03 0.0000000000000000e+00  -2.1808116248224114e-02 -3.6719098365776367e-03 0.0000000000000000e+00  -3.5403446165462857e-02 -3.6508747255532196e-03 0.0000000000000000e+00  -5.2030968159162666e-02 -3.6034365024240366e-03 0.0000000000000000e+00  -7.2040159396425288e-02 -3.5290733737063278e-03 0.0000000000000000e+00  -9.5773598579723035e-02 -3.4276321976289205e-03 0.0000000000000000e+00  -1.2355874811839451e-01 -3.2992964225870814e-03 0.0000000000000000e+00  -1.5570041508767762e-01 -3.1443170255068004e-03 0.0000000000000000e+00  -1.9247612441637557e-01 -2.9618819148093342e-03 0.0000000000000000e+00  0.0000000000000000e+00 1.1949305394609343e-05 0.0000000000000000e+00  -2.8752439719613235e-05 -2.6525214293420443e-06 0.0000000000000000e+00  -4.3407183180537626e-05 -4.3407183183244398e-05 0.0000000000000000e+00  -3.2762410787179814e-05 -1.0990230000448296e-04 0.0000000000000000e+00  1.5575283675687306e-05 -2.0201951215089979e-04 0.0000000000000000e+00  1.1376024492386932e-04 -3.1951110944290626e-04 0.0000000000000000e+00  2.7347604675196833e-04 -4.6196584088180971e-04 0.0000000000000000e+00  5.0577273076504758e-04 -6.2880656275999245e-04 0.0000000000000000e+00  8.2088588983156253e-04 -8.1929601855555137e-04 0.0000000000000000e+00  1.2280157416268964e-03 -1.0325393475244921e-03 0.0000000000000000e+00  1.7350552458666956e-03 -1.2674814737490701e-03 0.0000000000000000e+00  2.3482564775737088e-03 -1.5229006754624371e-03 0.0000000000000000e+00  3.0718225964841603e-03 -1.7973998590944209e-03 0.0000000000000000e+00  3.9074106680587030e-03 -2.0893966717272019e-03 0.0000000000000000e+00  4.8535286391133588e-03 -2.3971132588526934e-03 0.0000000000000000e+00  5.9048081149607624e-03 -2.7185662997137902e-03 0.0000000000000000e+00  7.0511334449351879e-03 -3.0515578894652401e-03 0.0000000000000000e+00  8.2766073208494564e-03 -3.3936678387120702e-03 0.0000000000000000e+00  9.5583340695096289e-03 -3.7422479998628125e-03 0.0000000000000000e+00  1.0865004648645005e-02 -4.0944192889904741e-03 0.0000000000000000e+00  1.2155272739105249e-02 -4.4470721434678876e-03 0.0000000000000000e+00  1.3375920083669984e-02 -4.7968712325441778e-03 0.0000000000000000e+00  1.4459822232941441e-02 -5.1402653139840408e-03 0.0000000000000000e+00  1.5323743956459432e-02 -5.4735031964029913e-03 0.0000000000000000e+00  1.5866017369331711e-02 -5.7926568116105316e-03 0.0000000000000000e+00  1.5964185417679726e-02 -6.0936524072091394e-03 0.0000000000000000e+00  1.5472727990895847e-02 -6.3723108136659688e-03 0.0000000000000000e+00  1.4221025502308998e-02 -6.6243975925003975e-03 0.0000000000000000e+00  1.2011751476265023e-02 -6.8456836000075297e-03 0.0000000000000000e+00  8.6199156751788786e-03 -7.0320160697707398e-03 0.0000000000000000e+00  3.7927949123531071e-03 -7.1793997021347587e-03 0.0000000000000000e+00  -2.7490188165784539e-03 -7.2840864441165746e-03 0.0000000000000000e+00  -1.1309262055917006e-02 -7.3426716744775080e-03 0.0000000000000000e+00  -2.2212219911361967e-02 -7.3521934250928775e-03 0.0000000000000000e+00  -3.5797518012355346e-02 -7.3102300788786883e-03 0.0000000000000000e+00  -5.2413620784351120e-02 -7.2149904455054842e-03 0.0000000000000000e+00  -7.2410320048772570e-02 -7.0653873636446034e-03 0.0000000000000000e+00  -9.6130636067925879e-02 -6.8610807992775316e-03 0.0000000000000000e+00  -1.2390265748925905e-01 -6.6024740165536652e-03 0.0000000000000000e+00  -1.5603190284079818e-01 -6.2907020922558718e-03 0.0000000000000000e+00  -1.9279461752151919e-01 -5.9281117409620103e-03 0.0000000000000000e+00  0.0000000000000000e+00 4.8557533211389175e-05 0.0000000000000000e+00  -6.1944012278477079e-05 2.7662937050013582e-05 0.0000000000000000e+00  -1.0990230000507104e-04 -3.2762410788600241e-05 0.0000000000000000e+00  -1.3225200088629637e-04 -1.3225200088624721e-04 0.0000000000000000e+00  -1.1680898083945783e-04 -2.7042083703820541e-04 0.0000000000000000e+00  -5.1480426693143419e-05 -4.4677137239832712e-04 0.0000000000000000e+00  7.5409607240965447e-05 -6.6061748818980483e-04 0.0000000000000000e+00  2.7493154189535830e-04 -9.1106846514957631e-04 0.0000000000000000e+00  5.5735926594210569e-04 -1.1970196855061179e-03 0.0000000000000000e+00  9.3194552315630863e-04 -1.5171427374173678e-03 0.0000000000000000e+00  1.4066494046475928e-03 -1.8698740774068915e-03 0.0000000000000000e+00  1.9878033169185207e-03 -2.2534020694654983e-03 0.0000000000000000e+00  2.6797058739331404e-03 -2.6656526064813978e-03 0.0000000000000000e+00  3.4841255625637254e-03 -3.1042737998441946e-03 0.0000000000000000e+00  4.3996982968418225e-03 -3.5666203699823242e-03 0.0000000000000000e+00  5.4212004101347206e-03 -4.0497384436396977e-03 0.0000000000000000e+00  6.5386775264625963e-03 -4.5503515176723392e-03 0.0000000000000000e+00  7.7364094578902904e-03 -5.0648484096368273e-03 0.0000000000000000e+00  8.9916922511549743e-03 -5.5892740935174663e-03 0.0000000000000000e+00  1.0273421332830520e-02 -6.1193244135448813e-03 0.0000000000000000e+00  1.1540465085241350e-02 -6.6503457784713015e-03 0.0000000000000000e+00  1.2739826944846077e-02 -7.1773410578302227e-03 0.0000000000000000e+00  1.3804607131117801e-02 -7.6949830241108746e-03 0.0000000000000000e+00  1.4651793222675423e-02 -8.1976368002927447e-03 0.0000000000000000e+00  1.5179932607191665e-02 -8.6793928644373422e-03 0.0000000000000000e+00  1.5266769450400040e-02 -9.1341122089034117e-03 0.0000000000000000e+00  1.4766963490914832e-02 -9.5554852162475536e-03 0.0000000000000000e+00  1.3510045590170196e-02 -9.9371056519480423e-03 0.0000000000000000e+00  1.1298801726602395e-02 -1.0272560829571386e-02 0.0000000000000000e+00  7.9083071938888545e-03 -1.0555538415587564e-02 0.0000000000000000e+00  3.0858484548972813e-03 -1.0779949453622258e-02 0.0000000000000000e+00  -3.4480373415495943e-03 -1.0940065968652359e-02 0.0000000000000000e+00  -1.1997213940884287e-02 -1.1030669969099034e-02 0.0000000000000000e+00  -2.2886172686958896e-02 -1.1047208857793240e-02 0.0000000000000000e+00  -3.6454829520012021e-02 -1.0985950301381112e-02 0.0000000000000000e+00  -5.3052025744004125e-02 -1.0844127709630990e-02 0.0000000000000000e+00  -7.3028014044138598e-02 -1.0620066431522661e-02 0.0000000000000000e+00  -9.6726344820550897e-02 -1.0313283905059183e-02 0.0000000000000000e+00  -1.2447566286170940e-01 -9.9245757620092592e-03 0.0000000000000000e+00  -1.5658196981872394e-01 -9.4561626867188508e-03 0.0000000000000000e+00  -1.9332191025683032e-01 -8.9121037248476465e-03 0.0000000000000000e+00  0.0000000000000000e+00 1.2304819316659801e-04 0.0000000000000000e+00  -1.0784626359947390e-04 9.5662750420980814e-05 0.0000000000000000e+00  -2.0201951215307592e-04 1.5575283675425190e-05 0.0000000000000000e+00  -2.7042083704365439e-04 -1.1680898083703588e-04 0.0000000000000000e+00  -3.0093298052929937e-04 -3.0093298052409883e-04 0.0000000000000000e+00  -2.8150791327417434e-04 -5.3608310597634036e-04 0.0000000000000000e+00  -2.0047278251183418e-04 -8.2131792436933011e-04 0.0000000000000000e+00  -4.6733091636020103e-05 -1.1554418019985048e-03 0.0000000000000000e+00  1.9003061102762584e-04 -1.5369880330631945e-03 0.0000000000000000e+00  5.1913690451376739e-04 -1.9642022979712544e-03 0.0000000000000000e+00  9.4863124481431174e-04 -2.4350245104312572e-03 0.0000000000000000e+00  1.4849537488157833e-03 -2.9470690214038150e-03 0.0000000000000000e+00  2.1325330724288201e-03 -3.4976035681351211e-03 0.0000000000000000e+00  2.8932909857659040e-03 -4.0835274897446606e-03 0.0000000000000000e+00  3.7660405794061446e-03 -4.7013498434890283e-03 0.0000000000000000e+00  4.7457595088465764e-03 -5.3471681762823353e-03 0.0000000000000000e+00  5.8227185993260135e-03 -6.0166488311085252e-03 0.0000000000000000e+00  6.9814458501521685e-03 -6.7050097966767632e-03 0.0000000000000000e+00  8.1995068583296856e-03 -7.4070072460970188e-03 0.0000000000000000e+00  9.4460855075772891e-03 -8.1169270592698073e-03 0.0000000000000000e+00  1.0680354151529368e-02 -8.8285827860310508e-03 0.0000000000000000e+00  1.1849631280552319e-02 -9.5353216815066873e-03 0.0000000000000000e+00  1.2887337683145848e-02 -1.0230040626790641e-02 0.0000000000000000e+00  1.3710780233519074e-02 -1.0905213925594633e-02 0.0000000000000000e+00  1.4218816268745009e-02 -1.1552935122694400e-02 0.0000000000000000e+00  1.4289481174568798e-02 -1.2164975091842072e-02 0.0000000000000000e+00  1.3777696517229829e-02 -1.2732858643740479e-02 0.0000000000000000e+00  1.2513213764748347e-02 -1.3247961746054127e-02 0.0000000000000000e+00  1.0298985515584761e-02 -1.3701631046536298e-02 0.0000000000000000e+00  6.9101863702471008e-03 -1.4085326656490170e-02 0.0000000000000000e+00  2.0941214472781286e-03 -1.4390787996848446e-02 0.0000000000000000e+00  -4.4287467117482592e-03 -1.4610220874213840e-02 0.0000000000000000e+00  -1.2962460682363570e-02 -1.4736501844988641e-02 0.0000000000000000e+00  -2.3831803051696028e-02 -1.4763393458708930e-02 0.0000000000000000e+00  -3.7377097480625288e-02 -1.4685761443395822e-02 0.0000000000000000e+00  -5.3947707725074671e-02 -1.4499782926809883e-02 0.0000000000000000e+00  -7.3894514250210791e-02 -1.4203134637391372e-02 0.0000000000000000e+00  -9.7561783153245527e-02 -1.3795153958053643e-02 0.0000000000000000e+00  -1.2527894453211763e-01 -1.3276975666723442e-02 0.0000000000000000e+00  -1.5735286390908790e-01 -1.2651654226791317e-02 0.0000000000000000e+00  -1.9406125137923935e-01 -1.1924221956839955e-02 0.0000000000000000e+00  0.0000000000000000e+00 2.4748921930555195e-04 0.0000000000000000e+00  -1.6645764630423993e-04 2.1354385606740366e-04 0.0000000000000000e+00  -3.1951110944585849e-04 1.1376024492565155e-04 0.0000000000000000e+00  -4.4677137240283128e-04 -5.1480426689650120e-05 0.0000000000000000e+00  -5.3608310597979549e-04 -2.8150791327162755e-04 0.0000000000000000e+00  -5.7542072867616020e-04 -5.7542072867244160e-04 0.0000000000000000e+00  -5.5310815602933568e-04 -9.3204323528161040e-04 0.0000000000000000e+00  -4.5802083914141256e-04 -1.3498944828832613e-03 0.0000000000000000e+00  -2.7978453812137129e-04 -1.8271651118872011e-03 0.0000000000000000e+00  -9.0011055215452378e-06 -2.3616948806013684e-03 0.0000000000000000e+00  3.6248050932888607e-04 -2.9509485280487420e-03 0.0000000000000000e+00  8.4123366254222794e-04 -3.5919896900613721e-03 0.0000000000000000e+00  1.4318494760705922e-03 -4.2814532491879890e-03 0.0000000000000000e+00  2.1364427498262928e-03 -5.0155167504100078e-03 0.0000000000000000e+00  2.9540511148470148e-03 -5.7898716579794316e-03 0.0000000000000000e+00  3.8799087058459477e-03 -6.5996953590539585e-03 0.0000000000000000e+00  4.9045745470591333e-03 -7.4396249636633546e-03 0.0000000000000000e+00  6.0128955585285826e-03 -8.3037341123658025e-03 0.0000000000000000e+00  7.1827850650044616e-03 -9.1855141837707353e-03 0.0000000000000000e+00  8.3838005103233706e-03 -1.0077861494489694e-02 0.0000000000000000e+00  9.5755094577265887e-03 -1.0973072304102601e-02 0.0000000000000000e+00  1.0705641714862293e-02 -1.1862847676227467e-02 0.0000000000000000e+00  1.1708038446685160e-02 -1.2738310498670677e-02 0.0000000000000000e+00  1.2500427271513273e-02 -1.3590037218666196e-02 0.0000000000000000e+00  1.2982076193484262e-02 -1.4408107081663141e-02 0.0000000000000000e+00  1.3031408927240194e-02 -1.5182171836033820e-02 0.0000000000000000e+00  1.2503698966312820e-02 -1.5901548924598014e-02 0.0000000000000000e+00  1.1228997569943600e-02 -1.6555341045470032e-02 0.0000000000000000e+00  9.0104878828208817e-03 -1.7132584524569072e-02 0.0000000000000000e+00  5.6234878370505078e-03 -1.7622428077545330e-02 0.0000000000000000e+00  8.1534061280269683e-04 -1.8014342128922889e-02 0.0000000000000000e+00  -5.6935755384215437e-03 -1.8298356814682067e-02 0.0000000000000000e+00  -1.4207524613342456e-02 -1.8465324123430490e-02 0.0000000000000000e+00  -2.5051658696467041e-02 -1.8507196486460306e-02 0.0000000000000000e+00  -3.8566824542984157e-02 -1.8417310890572417e-02 0.0000000000000000e+00  -5.5103061367366771e-02 -1.8190664910973472e-02 0.0000000000000000e+00  -7.5012069127900163e-02 -1.7824169747139192e-02 0.0000000000000000e+00  -9.8639063923292233e-02 -1.7316865610345879e-02 0.0000000000000000e+00  -1.2631454182477955e-01 -1.6670083735681511e-02 0.0000000000000000e+00  -1.5834653090785938e-01 -1.5887524780366626e-02 0.0000000000000000e+00  -1.9501391620278602e-01 -1.4975167184019193e-02 0.0000000000000000e+00  0.0000000000000000e+00 4.3349128948123877e-04 0.0000000000000000e+00  -2.3758601864690555e-04 3.9296921185462137e-04 0.0000000000000000e+00  -4.6196584088095352e-04 2.7347604675507538e-04 0.0000000000000000e+00  -6.6061748818971116e-04 7.5409607245593161e-05 0.0000000000000000e+00  -8.2131792437074803e-04 -2.0047278250865088e-04 0.0000000000000000e+00  -9.3204323528150686e-04 -5.5310815602563812e-04 0.0000000000000000e+00  -9.8110880212351134e-04 -9.8110880212480913e-04 0.0000000000000000e+00  -9.5735608204740113e-04 -1.4827313132709595e-03 0.0000000000000000e+00  -8.5034905829782916e-04 -2.0558485587457462e-03 0.0000000000000000e+00  -6.5059842888759954e-04 -2.6979214784906410e-03 0.0000000000000000e+00  -3.4983049242998657e-04 -3.4059689071361792e-03 0.0000000000000000e+00  5.8684585436153158e-05 -4.1765350871228891e-03 0.0000000000000000e+00  5.7973045535251121e-04 -5.0056552223521206e-03 0.0000000000000000e+00  1.2156523903140244e-03 -5.8888197520602622e-03 0.0000000000000000e+00  1.9657578399738741e-03 -6.8209382262946266e-03 0.0000000000000000e+00  2.8255908662196522e-03 -7.7963038354797844e-03 0.0000000000000000e+00  3.7860605076370530e-03 -8.8085598233423358e-03 0.0000000000000000e+00  4.8324028241584476e-03 -9.8506692089077967e-03 0.0000000000000000e+00  5.9429573351103635e-03 -1.0914889465310803e-02 0.0000000000000000e+00  7.0877413712398746e-03 -1.1992754053400747e-02 0.0000000000000000e+00  8.2268112264932275e-03 -1.3075062987958552e-02 0.0000000000000000e+00  9.3084077451539259e-03 -1.4151884922664342e-02 0.0000000000000000e+00  1.0266897001995071e-02 -1.5212573571312036e-02 0.0000000000000000e+00  1.1020534874827008e-02 -1.6245801623500651e-02 0.0000000000000000e+00  1.1469108194537989e-02 -1.7239615637919644e-02 0.0000000000000000e+00  1.1491534916206018e-02 -1.8181515660114188e-02 0.0000000000000000e+00  1.0943540646703958e-02 -1.9058563445461169e-02 0.0000000000000000e+00  9.6555668369368731e-03 -1.9857523072229235e-02 0.0000000000000000e+00  7.4311032015868831e-03 -2.0565037273049640e-02 0.0000000000000000e+00  4.0456676487153681e-03 -2.1167841840821780e-02 0.0000000000000000e+00  -7.5332652713094015e-04 -2.1653018818652506e-02 0.0000000000000000e+00  -7.2455830382654263e-03 -2.2008286742879558e-02 0.0000000000000000e+00  -1.5735619413298412e-02 -2.2222322951850438e-02 0.0000000000000000e+00  -2.6549027726647308e-02 -2.2285