<?xml version="1.0"?>
<VTKFile type="UnstructuredGrid"  version="0.1"  >
<UnstructuredGrid>
<Piece  NumberOfPoints="1681" NumberOfCells="3200">
<Points>
<DataArray  type="Float64"  NumberOfComponents="3"  format="ascii">0 0 0  0.5 0 0  1 0 0  1.5 0 0  2 0 0  2.5 0 0  3 0 0  3.5 0 0  4 0 0  4.5 0 0  5 0 0  5.5 0 0  6 0 0  6.5 0 0  7 0 0  7.5 0 0  8 0 0  8.5 0 0  9 0 0  9.5 0 0  10 0 0  10.5 0 0  11 0 0  11.5 0 0  12 0 0  12.5 0 0  13 0 0  13.5 0 0  14 0 0  14.5 0 0  15 0 0  15.5 0 0  16 0 0  16.5 0 0  17 0 0  17.5 0 0  18 0 0  18.5 0 0  19 0 0  19.5 0 0  20 0 0  0 0.5 0  0.5 0.5 0  1 0.5 0  1.5 0.5 0  2 0.5 0  2.5 0.5 0  3 0.5 0  3.5 0.5 0  4 0.5 0  4.5 0.5 0  5 0.5 0  5.5 0.5 0  6 0.5 0  6.5 0.5 0  7 0.5 0  7.5 0.5 0  8 0.5 0  8.5 0.5 0  9 0.5 0  9.5 0.5 0  10 0.5 0  10.5 0.5 0  11 0.5 0  11.5 0.5 0  12 0.5 0  12.5 0.5 0  13 0.5 0  13.5 0.5 0  14 0.5 0  14.5 0.5 0  15 0.5 0  15.5 0.5 0  16 0.5 0  16.5 0.5 0  17 0.5 0  17.5 0.5 0  18 0.5 0  18.5 0.5 0  19 0.5 0  19.5 0.5 0  20 0.5 0  0 1 0  0.5 1 0  1 1 0  1.5 1 0  2 1 0  2.5 1 0  3 1 0  3.5 1 0  4 1 0  4.5 1 0  5 1 0  5.5 1 0  6 1 0  6.5 1 0  7 1 0  7.5 1 0  8 1 0  8.5 1 0  9 1 0  9.5 1 0  10 1 0  10.5 1 0  11 1 0  11.5 1 0  12 1 0  12.5 1 0  13 1 0  13.5 1 0  14 1 0  14.5 1 0  15 1 0  15.5 1 0  16 1 0  16.5 1 0  17 1 0  17.5 1 0  18 1 0  18.5 1 0  19 1 0  19.5 1 0  20 1 0  0 1.5 0  0.5 1.5 0  1 1.5 0  1.5 1.5 0  2 1.5 0  2.5 1.5 0  3 1.5 0  3.5 1.5 0  4 1.5 0  4.5 1.5 0  5 1.5 0  5.5 1.5 0  6 1.5 0  6.5 1.5 0  7 1.5 0  7.5 1.5 0  8 1.5 0  8.5 1.5 0  9 1.5 0  9.5 1.5 0  10 1.5 0  10.5 1.5 0  11 1.5 0  11.5 1.5 0  12 1.5 0  12.5 1.5 0  13 1.5 0  13.5 1.5 0  14 1.5 0  14.5 1.5 0  15 1.5 0  15.5 1.5 0  16 1.5 0  16.5 1.5 0  17 1.5 0  17.5 1.5 0  18 1.5 0  18.5 1.5 0  19 1.5 0  19.5 1.5 0  20 1.5 0  0 2 0  0.5 2 0  1 2 0  1.5 2 0  2 2 0  2.5 2 0  3 2 0  3.5 2 0  4 2 0  4.5 2 0  5 2 0  5.5 2 0  6 2 0  6.5 2 0  7 2 0  7.5 2 0  8 2 0  8.5 2 0  9 2 0  9.5 2 0  10 2 0  10.5 2 0  11 2 0  11.5 2 0  12 2 0  12.5 2 0  13 2 0  13.5 2 0  14 2 0  14.5 2 0  15 2 0  15.5 2 0  16 2 0  16.5 2 0  17 2 0  17.5 2 0  18 2 0  18.5 2 0  19 2 0  19.5 2 0  20 2 0  0 2.5 0  0.5 2.5 0  1 2.5 0  1.5 2.5 0  2 2.5 0  2.5 2.5 0  3 2.5 0  3.5 2.5 0  4 2.5 0  4.5 2.5 0  5 2.5 0  5.5 2.5 0  6 2.5 0  6.5 2.5 0  7 2.5 0  7.5 2.5 0  8 2.5 0  8.5 2.5 0  9 2.5 0  9.5 2.5 0  10 2.5 0  10.5 2.5 0  11 2.5 0  11.5 2.5 0  12 2.5 0  12.5 2.5 0  13 2.5 0  13.5 2.5 0  14 2.5 0  14.5 2.5 0  15 2.5 0  15.5 2.5 0  16 2.5 0  16.5 2.5 0  17 2.5 0  17.5 2.5 0  18 2.5 0  18.5 2.5 0  19 2.5 0  19.5 2.5 0  20 2.5 0  0 3 0  0.5 3 0  1 3 0  1.5 3 0  2 3 0  2.5 3 0  3 3 0  3.5 3 0  4 3 0  4.5 3 0  5 3 0  5.5 3 0  6 3 0  6.5 3 0  7 3 0  7.5 3 0  8 3 0  8.5 3 0  9 3 0  9.5 3 0  10 3 0  10.5 3 0  11 3 0  11.5 3 0  12 3 0  12.5 3 0  13 3 0  13.5 3 0  14 3 0  14.5 3 0  15 3 0  15.5 3 0  16 3 0  16.5 3 0  17 3 0  17.5 3 0  18 3 0  18.5 3 0  19 3 0  19.5 3 0  20 3 0  0 3.5 0  0.5 3.5 0  1 3.5 0  1.5 3.5 0  2 3.5 0  2.5 3.5 0  3 3.5 0  3.5 3.5 0  4 3.5 0  4.5 3.5 0  5 3.5 0  5.5 3.5 0  6 3.5 0  6.5 3.5 0  7 3.5 0  7.5 3.5 0  8 3.5 0  8.5 3.5 0  9 3.5 0  9.5 3.5 0  10 3.5 0  10.5 3.5 0  11 3.5 0  11.5 3.5 0  12 3.5 0  12.5 3.5 0  13 3.5 0  13.5 3.5 0  14 3.5 0  14.5 3.5 0  15 3.5 0  15.5 3.5 0  16 3.5 0  16.5 3.5 0  17 3.5 0  17.5 3.5 0  18 3.5 0  18.5 3.5 0  19 3.5 0  19.5 3.5 0  20 3.5 0  0 4 0  0.5 4 0  1 4 0  1.5 4 0  2 4 0  2.5 4 0  3 4 0  3.5 4 0  4 4 0  4.5 4 0  5 4 0  5.5 4 0  6 4 0  6.5 4 0  7 4 0  7.5 4 0  8 4 0  8.5 4 0  9 4 0  9.5 4 0  10 4 0  10.5 4 0  11 4 0  11.5 4 0  12 4 0  12.5 4 0  13 4 0  13.5 4 0  14 4 0  14.5 4 0  15 4 0  15.5 4 0  16 4 0  16.5 4 0  17 4 0  17.5 4 0  18 4 0  18.5 4 0  19 4 0  19.5 4 0  20 4 0  0 4.5 0  0.5 4.5 0  1 4.5 0  1.5 4.5 0  2 4.5 0  2.5 4.5 0  3 4.5 0  3.5 4.5 0  4 4.5 0  4.5 4.5 0  5 4.5 0  5.5 4.5 0  6 4.5 0  6.5 4.5 0  7 4.5 0  7.5 4.5 0  8 4.5 0  8.5 4.5 0  9 4.5 0  9.5 4.5 0  10 4.5 0  10.5 4.5 0  11 4.5 0  11.5 4.5 0  12 4.5 0  12.5 4.5 0  13 4.5 0  13.5 4.5 0  14 4.5 0  14.5 4.5 0  15 4.5 0  15.5 4.5 0  16 4.5 0  16.5 4.5 0  17 4.5 0  17.5 4.5 0  18 4.5 0  18.5 4.5 0  19 4.5 0  19.5 4.5 0  20 4.5 0  0 5 0  0.5 5 0  1 5 0  1.5 5 0  2 5 0  2.5 5 0  3 5 0  3.5 5 0  4 5 0  4.5 5 0  5 5 0  5.5 5 0  6 5 0  6.5 5 0  7 5 0  7.5 5 0  8 5 0  8.5 5 0  9 5 0  9.5 5 0  10 5 0  10.5 5 0  11 5 0  11.5 5 0  12 5 0  12.5 5 0  13 5 0  13.5 5 0  14 5 0  14.5 5 0  15 5 0  15.5 5 0  16 5 0  16.5 5 0  17 5 0  17.5 5 0  18 5 0  18.5 5 0  19 5 0  19.5 5 0  20 5 0  0 5.5 0  0.5 5.5 0  1 5.5 0  1.5 5.5 0  2 5.5 0  2.5 5.5 0  3 5.5 0  3.5 5.5 0  4 5.5 0  4.5 5.5 0  5 5.5 0  5.5 5.5 0  6 5.5 0  6.5 5.5 0  7 5.5 0  7.5 5.5 0  8 5.5 0  8.5 5.5 0  9 5.5 0  9.5 5.5 0  10 5.5 0  10.5 5.5 0  11 5.5 0  11.5 5.5 0  12 5.5 0  12.5 5.5 0  13 5.5 0  13.5 5.5 0  14 5.5 0  14.5 5.5 0  15 5.5 0  15.5 5.5 0  16 5.5 0  16.5 5.5 0  17 5.5 0  17.5 5.5 0  18 5.5 0  18.5 5.5 0  19 5.5 0  19.5 5.5 0  20 5.5 0  0 6 0  0.5 6 0  1 6 0  1.5 6 0  2 6 0  2.5 6 0  3 6 0  3.5 6 0  4 6 0  4.5 6 0  5 6 0  5.5 6 0  6 6 0  6.5 6 0  7 6 0  7.5 6 0  8 6 0  8.5 6 0  9 6 0  9.5 6 0  10 6 0  10.5 6 0  11 6 0  11.5 6 0  12 6 0  12.5 6 0  13 6 0  13.5 6 0  14 6 0  14.5 6 0  15 6 0  15.5 6 0  16 6 0  16.5 6 0  17 6 0  17.5 6 0  18 6 0  18.5 6 0  19 6 0  19.5 6 0  20 6 0  0 6.5 0  0.5 6.5 0  1 6.5 0  1.5 6.5 0  2 6.5 0  2.5 6.5 0  3 6.5 0  3.5 6.5 0  4 6.5 0  4.5 6.5 0  5 6.5 0  5.5 6.5 0  6 6.5 0  6.5 6.5 0  7 6.5 0  7.5 6.5 0  8 6.5 0  8.5 6.5 0  9 6.5 0  9.5 6.5 0  10 6.5 0  10.5 6.5 0  11 6.5 0  11.5 6.5 0  12 6.5 0  12.5 6.5 0  13 6.5 0  13.5 6.5 0  14 6.5 0  14.5 6.5 0  15 6.5 0  15.5 6.5 0  16 6.5 0  16.5 6.5 0  17 6.5 0  17.5 6.5 0  18 6.5 0  18.5 6.5 0  19 6.5 0  19.5 6.5 0  20 6.5 0  0 7 0  0.5 7 0  1 7 0  1.5 7 0  2 7 0  2.5 7 0  3 7 0  3.5 7 0  4 7 0  4.5 7 0  5 7 0  5.5 7 0  6 7 0  6.5 7 0  7 7 0  7.5 7 0  8 7 0  8.5 7 0  9 7 0  9.5 7 0  10 7 0  10.5 7 0  11 7 0  11.5 7 0  12 7 0  12.5 7 0  13 7 0  13.5 7 0  14 7 0  14.5 7 0  15 7 0  15.5 7 0  16 7 0  16.5 7 0  17 7 0  17.5 7 0  18 7 0  18.5 7 0  19 7 0  19.5 7 0  20 7 0  0 7.5 0  0.5 7.5 0  1 7.5 0  1.5 7.5 0  2 7.5 0  2.5 7.5 0  3 7.5 0  3.5 7.5 0  4 7.5 0  4.5 7.5 0  5 7.5 0  5.5 7.5 0  6 7.5 0  6.5 7.5 0  7 7.5 0  7.5 7.5 0  8 7.5 0  8.5 7.5 0  9 7.5 0  9.5 7.5 0  10 7.5 0  10.5 7.5 0  11 7.5 0  11.5 7.5 0  12 7.5 0  12.5 7.5 0  13 7.5 0  13.5 7.5 0  14 7.5 0  14.5 7.5 0  15 7.5 0  15.5 7.5 0  16 7.5 0  16.5 7.5 0  17 7.5 0  17.5 7.5 0  18 7.5 0  18.5 7.5 0  19 7.5 0  19.5 7.5 0  20 7.5 0  0 8 0  0.5 8 0  1 8 0  1.5 8 0  2 8 0  2.5 8 0  3 8 0  3.5 8 0  4 8 0  4.5 8 0  5 8 0  5.5 8 0  6 8 0  6.5 8 0  7 8 0  7.5 8 0  8 8 0  8.5 8 0  9 8 0  9.5 8 0  10 8 0  10.5 8 0  11 8 0  11.5 8 0  12 8 0  12.5 8 0  13 8 0  13.5 8 0  14 8 0  14.5 8 0  15 8 0  15.5 8 0  16 8 0  16.5 8 0  17 8 0  17.5 8 0  18 8 0  18.5 8 0  19 8 0  19.5 8 0  20 8 0  0 8.5 0  0.5 8.5 0  1 8.5 0  1.5 8.5 0  2 8.5 0  2.5 8.5 0  3 8.5 0  3.5 8.5 0  4 8.5 0  4.5 8.5 0  5 8.5 0  5.5 8.5 0  6 8.5 0  6.5 8.5 0  7 8.5 0  7.5 8.5 0  8 8.5 0  8.5 8.5 0  9 8.5 0  9.5 8.5 0  10 8.5 0  10.5 8.5 0  11 8.5 0  11.5 8.5 0  12 8.5 0  12.5 8.5 0  13 8.5 0  13.5 8.5 0  14 8.5 0  14.5 8.5 0  15 8.5 0  15.5 8.5 0  16 8.5 0  16.5 8.5 0  17 8.5 0  17.5 8.5 0  18 8.5 0  18.5 8.5 0  19 8.5 0  19.5 8.5 0  20 8.5 0  0 9 0  0.5 9 0  1 9 0  1.5 9 0  2 9 0  2.5 9 0  3 9 0  3.5 9 0  4 9 0  4.5 9 0  5 9 0  5.5 9 0  6 9 0  6.5 9 0  7 9 0  7.5 9 0  8 9 0  8.5 9 0  9 9 0  9.5 9 0  10 9 0  10.5 9 0  11 9 0  11.5 9 0  12 9 0  12.5 9 0  13 9 0  13.5 9 0  14 9 0  14.5 9 0  15 9 0  15.5 9 0  16 9 0  16.5 9 0  17 9 0  17.5 9 0  18 9 0  18.5 9 0  19 9 0  19.5 9 0  20 9 0  0 9.5 0  0.5 9.5 0  1 9.5 0  1.5 9.5 0  2 9.5 0  2.5 9.5 0  3 9.5 0  3.5 9.5 0  4 9.5 0  4.5 9.5 0  5 9.5 0  5.5 9.5 0  6 9.5 0  6.5 9.5 0  7 9.5 0  7.5 9.5 0  8 9.5 0  8.5 9.5 0  9 9.5 0  9.5 9.5 0  10 9.5 0  10.5 9.5 0  11 9.5 0  11.5 9.5 0  12 9.5 0  12.5 9.5 0  13 9.5 0  13.5 9.5 0  14 9.5 0  14.5 9.5 0  15 9.5 0  15.5 9.5 0  16 9.5 0  16.5 9.5 0  17 9.5 0  17.5 9.5 0  18 9.5 0  18.5 9.5 0  19 9.5 0  19.5 9.5 0  20 9.5 0  0 10 0  0.5 10 0  1 10 0  1.5 10 0  2 10 0  2.5 10 0  3 10 0  3.5 10 0  4 10 0  4.5 10 0  5 10 0  5.5 10 0  6 10 0  6.5 10 0  7 10 0  7.5 10 0  8 10 0  8.5 10 0  9 10 0  9.5 10 0  10 10 0  10.5 10 0  11 10 0  11.5 10 0  12 10 0  12.5 10 0  13 10 0  13.5 10 0  14 10 0  14.5 10 0  15 10 0  15.5 10 0  16 10 0  16.5 10 0  17 10 0  17.5 10 0  18 10 0  18.5 10 0  19 10 0  19.5 10 0  20 10 0  0 10.5 0  0.5 10.5 0  1 10.5 0  1.5 10.5 0  2 10.5 0  2.5 10.5 0  3 10.5 0  3.5 10.5 0  4 10.5 0  4.5 10.5 0  5 10.5 0  5.5 10.5 0  6 10.5 0  6.5 10.5 0  7 10.5 0  7.5 10.5 0  8 10.5 0  8.5 10.5 0  9 10.5 0  9.5 10.5 0  10 10.5 0  10.5 10.5 0  11 10.5 0  11.5 10.5 0  12 10.5 0  12.5 10.5 0  13 10.5 0  13.5 10.5 0  14 10.5 0  14.5 10.5 0  15 10.5 0  15.5 10.5 0  16 10.5 0  16.5 10.5 0  17 10.5 0  17.5 10.5 0  18 10.5 0  18.5 10.5 0  19 10.5 0  19.5 10.5 0  20 10.5 0  0 11 0  0.5 11 0  1 11 0  1.5 11 0  2 11 0  2.5 11 0  3 11 0  3.5 11 0  4 11 0  4.5 11 0  5 11 0  5.5 11 0  6 11 0  6.5 11 0  7 11 0  7.5 11 0  8 11 0  8.5 11 0  9 11 0  9.5 11 0  10 11 0  10.5 11 0  11 11 0  11.5 11 0  12 11 0  12.5 11 0  13 11 0  13.5 11 0  14 11 0  14.5 11 0  15 11 0  15.5 11 0  16 11 0  16.5 11 0  17 11 0  17.5 11 0  18 11 0  18.5 11 0  19 11 0  19.5 11 0  20 11 0  0 11.5 0  0.5 11.5 0  1 11.5 0  1.5 11.5 0  2 11.5 0  2.5 11.5 0  3 11.5 0  3.5 11.5 0  4 11.5 0  4.5 11.5 0  5 11.5 0  5.5 11.5 0  6 11.5 0  6.5 11.5 0  7 11.5 0  7.5 11.5 0  8 11.5 0  8.5 11.5 0  9 11.5 0  9.5 11.5 0  10 11.5 0  10.5 11.5 0  11 11.5 0  11.5 11.5 0  12 11.5 0  12.5 11.5 0  13 11.5 0  13.5 11.5 0  14 11.5 0  14.5 11.5 0  15 11.5 0  15.5 11.5 0  16 11.5 0  16.5 11.5 0  17 11.5 0  17.5 11.5 0  18 11.5 0  18.5 11.5 0  19 11.5 0  19.5 11.5 0  20 11.5 0  0 12 0  0.5 12 0  1 12 0  1.5 12 0  2 12 0  2.5 12 0  3 12 0  3.5 12 0  4 12 0  4.5 12 0  5 12 0  5.5 12 0  6 12 0  6.5 12 0  7 12 0  7.5 12 0  8 12 0  8.5 12 0  9 12 0  9.5 12 0  10 12 0  10.5 12 0  11 12 0  11.5 12 0  12 12 0  12.5 12 0  13 12 0  13.5 12 0  14 12 0  14.5 12 0  
[...]
<PointData  Vectors="f_5623-0"> 
<DataArray  type="Float64"  Name="f_5623-0"  NumberOfComponents="3" format="ascii">0.0000000000000000e+00 0.0000000000000000e+00 0.0000000000000000e+00  1.4360972867118651e-06 0.0000000000000000e+00 0.0000000000000000e+00  6.9095692469948744e-06 0.0000000000000000e+00 0.0000000000000000e+00  2.1801851621502302e-05 0.0000000000000000e+00 0.0000000000000000e+00  5.0786666503858287e-05 0.0000000000000000e+00 0.0000000000000000e+00  9.8442399075503482e-05 0.0000000000000000e+00 0.0000000000000000e+00  1.6926820783979088e-04 0.0000000000000000e+00 0.0000000000000000e+00  2.6765787175324140e-04 0.0000000000000000e+00 0.0000000000000000e+00  3.9787063463891513e-04 0.0000000000000000e+00 0.0000000000000000e+00  5.6399946704838156e-04 0.0000000000000000e+00 0.0000000000000000e+00  7.6993502656711051e-04 0.0000000000000000e+00 0.0000000000000000e+00  1.0193234208519379e-03 0.0000000000000000e+00 0.0000000000000000e+00  1.3155153526637976e-03 0.0000000000000000e+00 0.0000000000000000e+00  1.6615032910279040e-03 0.0000000000000000e+00 0.0000000000000000e+00  2.0598419177800436e-03 0.0000000000000000e+00 0.0000000000000000e+00  2.5125451191275430e-03 0.0000000000000000e+00 0.0000000000000000e+00  3.0209500536128218e-03 0.0000000000000000e+00 0.0000000000000000e+00  3.5855351229760182e-03 0.0000000000000000e+00 0.0000000000000000e+00  4.2056737768438185e-03 0.0000000000000000e+00 0.0000000000000000e+00  4.8792997787285609e-03 0.0000000000000000e+00 0.0000000000000000e+00  5.6024516882609530e-03 0.0000000000000000e+00 0.0000000000000000e+00  6.3686548352050081e-03 0.0000000000000000e+00 0.0000000000000000e+00  7.1680881712897129e-03 0.0000000000000000e+00 0.0000000000000000e+00  7.9864716633241649e-03 0.0000000000000000e+00 0.0000000000000000e+00  8.8035984928746727e-03 0.0000000000000000e+00 0.0000000000000000e+00  9.5914272316560533e-03 0.0000000000000000e+00 0.0000000000000000e+00  1.0311645436176149e-02 0.0000000000000000e+00 0.0000000000000000e+00  1.0912622151686605e-02 0.0000000000000000e+00 0.0000000000000000e+00  1.1325688490229035e-02 0.0000000000000000e+00 0.0000000000000000e+00  1.1460729867427669e-02 0.0000000000000000e+00 0.0000000000000000e+00  1.1201148231980458e-02 0.0000000000000000e+00 0.0000000000000000e+00  1.0398363965807737e-02 0.0000000000000000e+00 0.0000000000000000e+00  8.8661768480463744e-03 0.0000000000000000e+00 0.0000000000000000e+00  6.3754861854300625e-03 0.0000000000000000e+00 0.0000000000000000e+00  2.6500599023385847e-03 0.0000000000000000e+00 0.0000000000000000e+00  -2.6357996905883750e-03 0.0000000000000000e+00 0.0000000000000000e+00  -9.8567772849703673e-03 0.0000000000000000e+00 0.0000000000000000e+00  -1.9432416598808865e-02 0.0000000000000000e+00 0.0000000000000000e+00  -3.1818736802124131e-02 0.0000000000000000e+00 0.0000000000000000e+00  -4.7495061619150292e-02 0.0000000000000000e+00 0.0000000000000000e+00  -6.6943714921733052e-02 0.0000000000000000e+00 0.0000000000000000e+00  0.0000000000000000e+00 1.4360972875383499e-06 0.0000000000000000e+00  -1.5798219282073952e-06 -1.5798219286232147e-06 0.0000000000000000e+00  1.7395656660924568e-06 -8.9632143066197596e-06 0.0000000000000000e+00  1.4369092449177407e-05 -2.0787011340106825e-05 0.0000000000000000e+00  4.1028971993077382e-05 -3.7159773242540751e-05 0.0000000000000000e+00  8.6340108650615255e-05 -5.8071980228459356e-05 0.0000000000000000e+00  1.5481833558548828e-04 -8.3449216746013410e-05 0.0000000000000000e+00  2.5086483185359783e-04 -1.1317944994673541e-04 0.0000000000000000e+00  3.7874380581726211e-04 -1.4712138501640911e-04 0.0000000000000000e+00  5.4255311495850613e-04 -1.8510575151478576e-04 0.0000000000000000e+00  7.4618908318613449e-04 -2.2693423040287346e-04 0.0000000000000000e+00  9.9330461664798742e-04 -2.7237758741011114e-04 0.0000000000000000e+00  1.2872585115863847e-03 -3.2117353774562294e-04 0.0000000000000000e+00  1.6310526986860968e-03 -3.7302455415159176e-04 0.0000000000000000e+00  2.0272527039866704e-03 -4.2759574424492775e-04 0.0000000000000000e+00  2.4778846023775208e-03 -4.8451290619258341e-04 0.0000000000000000e+00  2.9842989907755309e-03 -5.4336087736407018e-04 0.0000000000000000e+00  3.5469887984696372e-03 -6.0368230364065138e-04 0.0000000000000000e+00  4.1653428531598898e-03 -6.6497697382809885e-04 0.0000000000000000e+00  4.8373108163986735e-03 -7.2670188095789187e-04 0.0000000000000000e+00  5.5589472291088723e-03 -7.8827218969502696e-04 0.0000000000000000e+00  6.3237929307055673e-03 -8.4906330440373502e-04 0.0000000000000000e+00  7.1220412316207963e-03 -9.0841424434785995e-04 0.0000000000000000e+00  7.9394245086797897e-03 -9.6563253775699270e-04 0.0000000000000000e+00  8.7557455160695193e-03 -1.0200008419349771e-03 0.0000000000000000e+00  9.5429686434650562e-03 -1.0707854761080470e-03 0.0000000000000000e+00  1.0262782679242750e-02 -1.1172470109208185e-03 0.0000000000000000e+00  1.0863552753632910e-02 -1.1586529814265605e-03 0.0000000000000000e+00  1.1276600896397367e-02 -1.1942926655759537e-03 0.0000000000000000e+00  1.1411799145655176e-02 -1.2234936772384851e-03 0.0000000000000000e+00  1.1152533937344358e-02 -1.2456398398519751e-03 0.0000000000000000e+00  1.0350211789227742e-02 -1.2601894142478082e-03 0.0000000000000000e+00  8.8186257516691454e-03 -1.2666922463910905e-03 0.0000000000000000e+00  6.3286822314539744e-03 -1.2648038069369984e-03 0.0000000000000000e+00  2.6041764226685847e-03 -1.2542934874875638e-03 0.0000000000000000e+00  -2.6805394676295662e-03 -1.2350439650327736e-03 0.0000000000000000e+00  -9.9000873019333153e-03 -1.2070376673461367e-03 0.0000000000000000e+00  -1.9473982397054265e-02 -1.1703233401711389e-03 0.0000000000000000e+00  -3.1858448131858924e-02 -1.1249417874015532e-03 0.0000000000000000e+00  -4.7534249762139866e-02 -1.0707354450910597e-03 0.0000000000000000e+00  -6.6992157638445168e-02 -1.0068085033255693e-03 0.0000000000000000e+00  0.0000000000000000e+00 6.9095692482969335e-06 0.0000000000000000e+00  -8.9632143078893756e-06 1.7395656650363529e-06 0.0000000000000000e+00  -1.2754108394573702e-05 -1.2754108393391022e-05 0.0000000000000000e+00  -7.1519415039154219e-06 -3.6447104069963122e-05 0.0000000000000000e+00  1.2483018898322215e-05 -6.9295530669292681e-05 0.0000000000000000e+00  5.0759544715791895e-05 -1.1120453180518260e-04 0.0000000000000000e+00  1.1220153326989906e-04 -1.6201936888153671e-04 0.0000000000000000e+00  2.0122192277088465e-04 -2.2152527962381754e-04 0.0000000000000000e+00  3.2209782573438660e-04 -2.8944918117701957e-04 0.0000000000000000e+00  4.7894167854954238e-04 -3.6545986401214167e-04 0.0000000000000000e+00  6.7566690878306942e-04 -4.4916630325808935e-04 0.0000000000000000e+00  9.1594671432643161e-04 -5.4011464399962388e-04 0.0000000000000000e+00  1.2031638157367116e-03 -6.3778443936491659e-04 0.0000000000000000e+00  1.5403479623555929e-03 -7.4158457386187761e-04 0.0000000000000000e+00  1.9300964978114028e-03 -8.5084919610632485e-04 0.0000000000000000e+00  2.3744712671419266e-03 -9.6483393500462343e-04 0.0000000000000000e+00  2.8748623848108032e-03 -1.0827126623224512e-03 0.0000000000000000e+00  3.4318056640013886e-03 -1.2035750758335783e-03 0.0000000000000000e+00  4.0447356036042376e-03 -1.3264253993014227e-03 0.0000000000000000e+00  4.7116495226253623e-03 -1.4501825218872764e-03 0.0000000000000000e+00  5.4286505603521520e-03 -1.5736819249047246e-03 0.0000000000000000e+00  6.1893277894485323e-03 -1.6956797636794769e-03 0.0000000000000000e+00  6.9839208173964199e-03 -1.8148594815352783e-03 0.0000000000000000e+00  7.7982045609359049e-03 -1.9298413253662047e-03 0.0000000000000000e+00  8.6120185312021213e-03 -2.0391951005549378e-03 0.0000000000000000e+00  9.3973559476720047e-03 -2.1414564382480727e-03 0.0000000000000000e+00  1.0115924379080024e-02 -2.2351467404513139e-03 0.0000000000000000e+00  1.0716095790732060e-02 -2.3187968064707779e-03 0.0000000000000000e+00  1.1129185703125183e-02 -2.3909739172349874e-03 0.0000000000000000e+00  1.1265045720438589e-02 -2.4503118499504622e-03 0.0000000000000000e+00  1.1007028487698266e-02 -2.4955429068186296e-03 0.0000000000000000e+00  1.0206495340030434e-02 -2.5255305631987713e-03 0.0000000000000000e+00  8.6771861430276296e-03 -2.5393007753556720e-03 0.0000000000000000e+00  6.1899505303066801e-03 -2.5360693415889795e-03 0.0000000000000000e+00  2.4685276821370238e-03 -2.5152619646216430e-03 0.0000000000000000e+00  -2.8127832624866133e-03 -2.4765226904385797e-03 0.0000000000000000e+00  -1.0028657677169966e-02 -2.4197047849918002e-03 0.0000000000000000e+00  -1.9598678320988338e-02 -2.3448351712632219e-03 0.0000000000000000e+00  -3.1979173514822143e-02 -2.2520406635197260e-03 0.0000000000000000e+00  -4.7651015915331711e-02 -2.1414392450346850e-03 0.0000000000000000e+00  -6.7104170542382449e-02 -2.0131353943810626e-03 0.0000000000000000e+00  0.0000000000000000e+00 2.1801851622008428e-05 0.0000000000000000e+00  -2.0787011337835906e-05 1.4369092448617373e-05 0.0000000000000000e+00  -3.6447104068052053e-05 -7.1519415042569363e-06 0.0000000000000000e+00  -4.2616377783182687e-05 -4.2616377783521859e-05 0.0000000000000000e+00  -3.4721598536805454e-05 -9.1889906580329241e-05 0.0000000000000000e+00  -8.1723152511282002e-06 -1.5479051643280597e-04 0.0000000000000000e+00  4.1554810746586960e-05 -2.3106541807504751e-04 0.0000000000000000e+00  1.1888182507529720e-04 -3.2038616461548181e-04 0.0000000000000000e+00  2.2810157735938844e-04 -4.2234515362691037e-04 0.0000000000000000e+00  3.7334788216554846e-04 -5.3645148953627053e-04 0.0000000000000000e+00  5.5856115302818545e-04 -6.6212612445138786e-04 0.0000000000000000e+00  7.8744749553707907e-04 -7.9869634494221086e-04 0.0000000000000000e+00  1.0634288246068018e-03 -9.4538977615777101e-04 0.0000000000000000e+00  1.3895806479114672e-03 -1.1013281604929041e-03 0.0000000000000000e+00  1.7685527508651290e-03 -1.2655212190521804e-03 0.0000000000000000e+00  2.2024660210114982e-03 -1.4368609374964549e-03 0.0000000000000000e+00  2.6927758942445444e-03 -1.6141166474969702e-03 0.0000000000000000e+00  3.2400891870894314e-03 -1.7959313080006230e-03 0.0000000000000000e+00  3.8439161748527817e-03 -1.9808194261848482e-03 0.0000000000000000e+00  4.5023334700892903e-03 -2.1671670944095043e-03 0.0000000000000000e+00  5.2115253895732589e-03 -2.3532346501973188e-03 0.0000000000000000e+00  5.9651620378123413e-03 -2.5371624869422009e-03 0.0000000000000000e+00  6.7535614814536954e-03 -2.7169805450965299e-03 0.0000000000000000e+00  7.5625717264926227e-03 -2.8906219892677093e-03 0.0000000000000000e+00  8.3720969020376762e-03 -3.0559415163899199e-03 0.0000000000000000e+00  9.1541830860774887e-03 -3.2107386345609965e-03 0.0000000000000000e+00  9.8705756504074219e-03 -3.3527860922502148e-03 0.0000000000000000e+00  1.0469666250648003e-02 -3.4798634172012897e-03 0.0000000000000000e+00  1.0882769475734265e-02 -3.5897952404286299e-03 0.0000000000000000e+00  1.1019713765512964e-02 -3.6804937347448352e-03 0.0000000000000000e+00  1.0763805998763924e-02 -3.7500040948943584e-03 0.0000000000000000e+00  9.9663402755426553e-03 -3.7965515319340190e-03 0.0000000000000000e+00  8.4409704743312348e-03 -3.8185877434428112e-03 0.0000000000000000e+00  5.9584456087817322e-03 -3.8148342251438289e-03 0.0000000000000000e+00  2.2423946940855004e-03 -3.7843190411605081e-03 0.0000000000000000e+00  -3.0329972104324722e-03 -3.7264026810322781e-03 0.0000000000000000e+00  -1.0242516934240243e-02 -3.6407874460523673e-03 0.0000000000000000e+00  -1.9805845833579052e-02 -3.5275041963663354e-03 0.0000000000000000e+00  -3.2179376192978386e-02 -3.3868730939436965e-03 0.0000000000000000e+00  -4.7843959513229610e-02 -3.2194458751687431e-03 0.0000000000000000e+00  -6.7289370998572531e-02 -3.0259418477230219e-03 0.0000000000000000e+00  0.0000000000000000e+00 5.0786666502535208e-05 0.0000000000000000e+00  -3.7159773242230060e-05 4.1028971991322337e-05 0.0000000000000000e+00  -6.9295530668169028e-05 1.2483018898893137e-05 0.0000000000000000e+00  -9.1889906580448598e-05 -3.4721598534900572e-05 0.0000000000000000e+00  -1.0039057518719976e-04 -1.0039057518700396e-04 0.0000000000000000e+00  -9.0220231798092006e-05 -1.8426583270592456e-04 0.0000000000000000e+00  -5.6854388002546496e-05 -2.8600345722524145e-04 0.0000000000000000e+00  4.1399575671224938e-06 -4.0516506244021243e-04 0.0000000000000000e+00  9.7074842412912796e-05 -5.4121147409216428e-04 0.0000000000000000e+00  2.2611134004770793e-04 -6.9349604749588726e-04 0.0000000000000000e+00  3.9522546401324848e-04 -8.6125717814555564e-04 0.0000000000000000e+00  6.0816766090936397e-04 -1.0436101345730287e-03 0.0000000000000000e+00  8.6841332037202899e-04 -1.2395384618346921e-03 0.0000000000000000e+00  1.1791008489271276e-03 -1.4478852484760990e-03 0.0000000000000000e+00  1.5429524664351852e-03 -1.6673445977287286e-03 0.0000000000000000e+00  1.9621708971758753e-03 -1.8964536987479471e-03 0.0000000000000000e+00  2.4383023780721754e-03 -2.1335859519596894e-03 0.0000000000000000e+00  2.9720526917442190e-03 -2.3769456606259113e-03 0.0000000000000000e+00  3.5630380307197559e-03 -2.6245648568381228e-03 0.0000000000000000e+00  4.2094461990531259e-03 -2.8743028809056445e-03 0.0000000000000000e+00  4.9075758007221179e-03 -3.1238493729747303e-03 0.0000000000000000e+00  5.6512116199898743e-03 -3.3707313594466852e-03 0.0000000000000000e+00  6.4307835701796403e-03 -3.6123251141800521e-03 0.0000000000000000e+00  7.2322449599883862e-03 -3.8458734382234164e-03 0.0000000000000000e+00  8.0355945658811597e-03 -4.0685089200637407e-03 0.0000000000000000e+00  8.8129580895204840e-03 -4.2772836045177082e-03 0.0000000000000000e+00  9.5261410890168079e-03 -4.4692053043991903e-03 0.0000000000000000e+00  1.0123571791963947e-02 -4.6412805353671328e-03 0.0000000000000000e+00  1.0536574147993439e-02 -4.7905637444860564e-03 0.0000000000000000e+00  1.0674956107767206e-02 -4.9142121478215938e-03 0.0000000000000000e+00  1.0421972896246481e-02 -5.0095451036769297e-03 0.0000000000000000e+00  9.6288360912788230e-03 -5.0741065294735502e-03 0.0000000000000000e+00  8.1090882299764914e-03 -5.1057284037276428e-03 0.0000000000000000e+00  5.6333419356042356e-03 -5.1025928262294906e-03 0.0000000000000000e+00  1.9250701384226300e-03 -5.0632893554333602e-03 0.0000000000000000e+00  -3.3417109676739647e-03 -4.9868633515151974e-03 0.0000000000000000e+00  -1.0541961000886771e-02 -4.8728499617741667e-03 0.0000000000000000e+00  -2.0095526414485431e-02 -4.7212876569897692e-03 0.0000000000000000e+00  -3.2458941787704247e-02 -4.5327050081076887e-03 0.0000000000000000e+00  -4.8113155476167721e-02 -4.3080703400471881e-03 0.0000000000000000e+00  -6.7547922700584309e-02 -4.0486653355235915e-03 0.0000000000000000e+00  0.0000000000000000e+00 9.8442399076541470e-05 0.0000000000000000e+00  -5.8071980228603094e-05 8.6340108649766054e-05 0.0000000000000000e+00  -1.1120453180694690e-04 5.0759544716823988e-05 0.0000000000000000e+00  -1.5479051643440530e-04 -8.1723152499927102e-06 0.0000000000000000e+00  -1.8426583270519399e-04 -9.0220231799953703e-05 0.0000000000000000e+00  -1.9505969797043124e-04 -1.9505969797236226e-04 0.0000000000000000e+00  -1.8264451505755288e-04 -3.2226341513364712e-04 0.0000000000000000e+00  -1.4257403616573644e-04 -4.7129066021014759e-04 0.0000000000000000e+00  -7.0513253718947904e-05 -6.4147854278233678e-04 0.0000000000000000e+00  3.7731877972789409e-05 -8.3203296302579693e-04 0.0000000000000000e+00  1.8618097310046212e-04 -1.0420187114337574e-03 0.0000000000000000e+00  3.7863939348176942e-04 -1.2703487695222340e-03 0.0000000000000000e+00  6.1864935638769256e-04 -1.5157730764760995e-03 0.0000000000000000e+00  9.0942843131124138e-04 -1.7768671150037445e-03 0.0000000000000000e+00  1.2537905152500933e-03 -2.0520207327681442e-03 0.0000000000000000e+00  1.6540423916103831e-03 -2.3394276797714720e-03 0.0000000000000000e+00  2.1118462273773584e-03 -2.6370764115758801e-03 0.0000000000000000e+00  2.6280346477271354e-03 -2.9427427810214900e-03 0.0000000000000000e+00  3.2023601281444504e-03 -3.2539853125714930e-03 0.0000000000000000e+00  3.8331541500110093e-03 -3.5681438185383527e-03 0.0000000000000000e+00  4.5168637207762281e-03 -3.8823421679188863e-03 0.0000000000000000e+00  5.2474234355663228e-03 -4.1934960490445546e-03 0.0000000000000000e+00  6.0154104578973395e-03 -4.4983265667861627e-03 0.0000000000000000e+00  6.8069182109505265e-03 -4.7933804741840287e-03 0.0000000000000000e+00  7.6020733634183631e-03 -5.0750577468184274e-03 0.0000000000000000e+00  8.3731118487326561e-03 -5.3396470591961197e-03 0.0000000000000000e+00  9.0819262382771087e-03 -5.5833695116408845e-03 0.0000000000000000e+00  9.6770031807354821e-03 -5.8024306869038705e-03 0.0000000000000000e+00  1.0089691630554565e-02 -5.9930807968858113e-03 0.0000000000000000e+00  1.0229787251597473e-02 -6.1516823256739638e-03 0.0000000000000000e+00  9.9804931515044860e-03 -6.2747841977240908e-03 0.0000000000000000e+00  9.1929280766499602e-03 -6.3592010962173033e-03 0.0000000000000000e+00  7.6805019844874310e-03 -6.4020960927331661e-03 0.0000000000000000e+00  5.2136580336776591e-03 -6.4010641480754110e-03 0.0000000000000000e+00  1.5156675061050427e-03 -6.3542131975272090e-03 0.0000000000000000e+00  -3.7396807584735340e-03 -6.2602383574259833e-03 0.0000000000000000e+00  -1.0927591129726568e-02 -6.1184833058407235e-03 0.0000000000000000e+00  -2.0468161704653369e-02 -5.9289811947958702e-03 0.0000000000000000e+00  -3.2818170627225994e-02 -5.6924652270868917e-03 0.0000000000000000e+00  -4.8458768812151526e-02 -5.4103347228283572e-03 0.0000000000000000e+00  -6.7879762124474011e-02 -5.0845572181774032e-03 0.0000000000000000e+00  0.0000000000000000e+00 1.6926820783760968e-04 0.0000000000000000e+00  -8.3449216745261191e-05 1.5481833558319514e-04 0.0000000000000000e+00  -1.6201936888134827e-04 1.1220153327181691e-04 0.0000000000000000e+00  -2.3106541807401120e-04 4.1554810745696580e-05 0.0000000000000000e+00  -2.8600345722350884e-04 -5.6854388004134784e-05 0.0000000000000000e+00  -3.2226341513338648e-04 -1.8264451505841658e-04 0.0000000000000000e+00  -3.3531331689145850e-04 -3.3531331689204755e-04 0.0000000000000000e+00  -3.2069238559908703e-04 -5.1422677620321889e-04 0.0000000000000000e+00  -2.7403992196460406e-04 -7.1860832025773377e-04 0.0000000000000000e+00  -1.9112421872304964e-04 -9.4752744277152808e-04 0.0000000000000000e+00  -6.7875083708991734e-05 -1.1998873281321967e-03 0.0000000000000000e+00  9.9577291459491279e-05 -1.4744115256538526e-03 0.0000000000000000e+00  3.1485426879458093e-04 -1.7696299458339921e-03 0.0000000000000000e+00  5.8126787195191497e-04 -2.0838645700586825e-03 0.0000000000000000e+00  9.0174207426168326e-04 -2.4152153526298867e-03 0.0000000000000000e+00  1.2787092951948395e-03 -2.7615468768939070e-03 0.0000000000000000e+00  1.7139723815396727e-03 -3.1204764128502441e-03 0.0000000000000000e+00  2.2085186328570506e-03 -3.4893641118096336e-03 0.0000000000000000e+00  2.7622675324635031e-03 -3.8653061614149810e-03 0.0000000000000000e+00  3.3737275574948641e-03 -4.2451318046642589e-03 0.0000000000000000e+00  4.0395296095142117e-03 -4.6254051930417154e-03 0.0000000000000000e+00  4.7537952049232527e-03 -5.0024330863256729e-03 0.0000000000000000e+00  5.5072867977842468e-03 -5.3722794206021336e-03 0.0000000000000000e+00  6.2862760659513845e-03 -5.7307877304704569e-03 0.0000000000000000e+00  7.0710548409352618e-03 -6.0736123218411093e-03 0.0000000000000000e+00  7.8340045843973607e-03 -6.3962589414234446e-03 0.0000000000000000e+00  8.5371369709762827e-03 -6.6941354757567963e-03 0.0000000000000000e+00  9.1290246032813705e-03 -6.9626129412469415e-03 0.0000000000000000e+00  9.5410629598447379e-03 -7.1970967078263046e-03 0.0000000000000000e+00  9.6830493785458969e-03 -7.3931075463322480e-03 0.0000000000000000e+00  9.4381396464656760e-03 -7.5463717110389695e-03 0.0000000000000000e+00  8.6573536888281694e-03 -7.6529188499717222e-03 0.0000000000000000e+00  7.1539505345565753e-03 -7.7091860241045342e-03 0.0000000000000000e+00  4.6981717321107333e-03 -7.7121254102136888e-03 0.0000000000000