<?xml version="1.0"?>
<VTKFile type="UnstructuredGrid"  version="0.1"  >
<UnstructuredGrid>
<Piece  NumberOfPoints="1681" NumberOfCells="3200">
<Points>
<DataArray  type="Float64"  NumberOfComponents="3"  format="ascii">0 0 0  0.5 0 0  1 0 0  1.5 0 0  2 0 0  2.5 0 0  3 0 0  3.5 0 0  4 0 0  4.5 0 0  5 0 0  5.5 0 0  6 0 0  6.5 0 0  7 0 0  7.5 0 0  8 0 0  8.5 0 0  9 0 0  9.5 0 0  10 0 0  10.5 0 0  11 0 0  11.5 0 0  12 0 0  12.5 0 0  13 0 0  13.5 0 0  14 0 0  14.5 0 0  15 0 0  15.5 0 0  16 0 0  16.5 0 0  17 0 0  17.5 0 0  18 0 0  18.5 0 0  19 0 0  19.5 0 0  20 0 0  0 0.5 0  0.5 0.5 0  1 0.5 0  1.5 0.5 0  2 0.5 0  2.5 0.5 0  3 0.5 0  3.5 0.5 0  4 0.5 0  4.5 0.5 0  5 0.5 0  5.5 0.5 0  6 0.5 0  6.5 0.5 0  7 0.5 0  7.5 0.5 0  8 0.5 0  8.5 0.5 0  9 0.5 0  9.5 0.5 0  10 0.5 0  10.5 0.5 0  11 0.5 0  11.5 0.5 0  12 0.5 0  12.5 0.5 0  13 0.5 0  13.5 0.5 0  14 0.5 0  14.5 0.5 0  15 0.5 0  15.5 0.5 0  16 0.5 0  16.5 0.5 0  17 0.5 0  17.5 0.5 0  18 0.5 0  18.5 0.5 0  19 0.5 0  19.5 0.5 0  20 0.5 0  0 1 0  0.5 1 0  1 1 0  1.5 1 0  2 1 0  2.5 1 0  3 1 0  3.5 1 0  4 1 0  4.5 1 0  5 1 0  5.5 1 0  6 1 0  6.5 1 0  7 1 0  7.5 1 0  8 1 0  8.5 1 0  9 1 0  9.5 1 0  10 1 0  10.5 1 0  11 1 0  11.5 1 0  12 1 0  12.5 1 0  13 1 0  13.5 1 0  14 1 0  14.5 1 0  15 1 0  15.5 1 0  16 1 0  16.5 1 0  17 1 0  17.5 1 0  18 1 0  18.5 1 0  19 1 0  19.5 1 0  20 1 0  0 1.5 0  0.5 1.5 0  1 1.5 0  1.5 1.5 0  2 1.5 0  2.5 1.5 0  3 1.5 0  3.5 1.5 0  4 1.5 0  4.5 1.5 0  5 1.5 0  5.5 1.5 0  6 1.5 0  6.5 1.5 0  7 1.5 0  7.5 1.5 0  8 1.5 0  8.5 1.5 0  9 1.5 0  9.5 1.5 0  10 1.5 0  10.5 1.5 0  11 1.5 0  11.5 1.5 0  12 1.5 0  12.5 1.5 0  13 1.5 0  13.5 1.5 0  14 1.5 0  14.5 1.5 0  15 1.5 0  15.5 1.5 0  16 1.5 0  16.5 1.5 0  17 1.5 0  17.5 1.5 0  18 1.5 0  18.5 1.5 0  19 1.5 0  19.5 1.5 0  20 1.5 0  0 2 0  0.5 2 0  1 2 0  1.5 2 0  2 2 0  2.5 2 0  3 2 0  3.5 2 0  4 2 0  4.5 2 0  5 2 0  5.5 2 0  6 2 0  6.5 2 0  7 2 0  7.5 2 0  8 2 0  8.5 2 0  9 2 0  9.5 2 0  10 2 0  10.5 2 0  11 2 0  11.5 2 0  12 2 0  12.5 2 0  13 2 0  13.5 2 0  14 2 0  14.5 2 0  15 2 0  15.5 2 0  16 2 0  16.5 2 0  17 2 0  17.5 2 0  18 2 0  18.5 2 0  19 2 0  19.5 2 0  20 2 0  0 2.5 0  0.5 2.5 0  1 2.5 0  1.5 2.5 0  2 2.5 0  2.5 2.5 0  3 2.5 0  3.5 2.5 0  4 2.5 0  4.5 2.5 0  5 2.5 0  5.5 2.5 0  6 2.5 0  6.5 2.5 0  7 2.5 0  7.5 2.5 0  8 2.5 0  8.5 2.5 0  9 2.5 0  9.5 2.5 0  10 2.5 0  10.5 2.5 0  11 2.5 0  11.5 2.5 0  12 2.5 0  12.5 2.5 0  13 2.5 0  13.5 2.5 0  14 2.5 0  14.5 2.5 0  15 2.5 0  15.5 2.5 0  16 2.5 0  16.5 2.5 0  17 2.5 0  17.5 2.5 0  18 2.5 0  18.5 2.5 0  19 2.5 0  19.5 2.5 0  20 2.5 0  0 3 0  0.5 3 0  1 3 0  1.5 3 0  2 3 0  2.5 3 0  3 3 0  3.5 3 0  4 3 0  4.5 3 0  5 3 0  5.5 3 0  6 3 0  6.5 3 0  7 3 0  7.5 3 0  8 3 0  8.5 3 0  9 3 0  9.5 3 0  10 3 0  10.5 3 0  11 3 0  11.5 3 0  12 3 0  12.5 3 0  13 3 0  13.5 3 0  14 3 0  14.5 3 0  15 3 0  15.5 3 0  16 3 0  16.5 3 0  17 3 0  17.5 3 0  18 3 0  18.5 3 0  19 3 0  19.5 3 0  20 3 0  0 3.5 0  0.5 3.5 0  1 3.5 0  1.5 3.5 0  2 3.5 0  2.5 3.5 0  3 3.5 0  3.5 3.5 0  4 3.5 0  4.5 3.5 0  5 3.5 0  5.5 3.5 0  6 3.5 0  6.5 3.5 0  7 3.5 0  7.5 3.5 0  8 3.5 0  8.5 3.5 0  9 3.5 0  9.5 3.5 0  10 3.5 0  10.5 3.5 0  11 3.5 0  11.5 3.5 0  12 3.5 0  12.5 3.5 0  13 3.5 0  13.5 3.5 0  14 3.5 0  14.5 3.5 0  15 3.5 0  15.5 3.5 0  16 3.5 0  16.5 3.5 0  17 3.5 0  17.5 3.5 0  18 3.5 0  18.5 3.5 0  19 3.5 0  19.5 3.5 0  20 3.5 0  0 4 0  0.5 4 0  1 4 0  1.5 4 0  2 4 0  2.5 4 0  3 4 0  3.5 4 0  4 4 0  4.5 4 0  5 4 0  5.5 4 0  6 4 0  6.5 4 0  7 4 0  7.5 4 0  8 4 0  8.5 4 0  9 4 0  9.5 4 0  10 4 0  10.5 4 0  11 4 0  11.5 4 0  12 4 0  12.5 4 0  13 4 0  13.5 4 0  14 4 0  14.5 4 0  15 4 0  15.5 4 0  16 4 0  16.5 4 0  17 4 0  17.5 4 0  18 4 0  18.5 4 0  19 4 0  19.5 4 0  20 4 0  0 4.5 0  0.5 4.5 0  1 4.5 0  1.5 4.5 0  2 4.5 0  2.5 4.5 0  3 4.5 0  3.5 4.5 0  4 4.5 0  4.5 4.5 0  5 4.5 0  5.5 4.5 0  6 4.5 0  6.5 4.5 0  7 4.5 0  7.5 4.5 0  8 4.5 0  8.5 4.5 0  9 4.5 0  9.5 4.5 0  10 4.5 0  10.5 4.5 0  11 4.5 0  11.5 4.5 0  12 4.5 0  12.5 4.5 0  13 4.5 0  13.5 4.5 0  14 4.5 0  14.5 4.5 0  15 4.5 0  15.5 4.5 0  16 4.5 0  16.5 4.5 0  17 4.5 0  17.5 4.5 0  18 4.5 0  18.5 4.5 0  19 4.5 0  19.5 4.5 0  20 4.5 0  0 5 0  0.5 5 0  1 5 0  1.5 5 0  2 5 0  2.5 5 0  3 5 0  3.5 5 0  4 5 0  4.5 5 0  5 5 0  5.5 5 0  6 5 0  6.5 5 0  7 5 0  7.5 5 0  8 5 0  8.5 5 0  9 5 0  9.5 5 0  10 5 0  10.5 5 0  11 5 0  11.5 5 0  12 5 0  12.5 5 0  13 5 0  13.5 5 0  14 5 0  14.5 5 0  15 5 0  15.5 5 0  16 5 0  16.5 5 0  17 5 0  17.5 5 0  18 5 0  18.5 5 0  19 5 0  19.5 5 0  20 5 0  0 5.5 0  0.5 5.5 0  1 5.5 0  1.5 5.5 0  2 5.5 0  2.5 5.5 0  3 5.5 0  3.5 5.5 0  4 5.5 0  4.5 5.5 0  5 5.5 0  5.5 5.5 0  6 5.5 0  6.5 5.5 0  7 5.5 0  7.5 5.5 0  8 5.5 0  8.5 5.5 0  9 5.5 0  9.5 5.5 0  10 5.5 0  10.5 5.5 0  11 5.5 0  11.5 5.5 0  12 5.5 0  12.5 5.5 0  13 5.5 0  13.5 5.5 0  14 5.5 0  14.5 5.5 0  15 5.5 0  15.5 5.5 0  16 5.5 0  16.5 5.5 0  17 5.5 0  17.5 5.5 0  18 5.5 0  18.5 5.5 0  19 5.5 0  19.5 5.5 0  20 5.5 0  0 6 0  0.5 6 0  1 6 0  1.5 6 0  2 6 0  2.5 6 0  3 6 0  3.5 6 0  4 6 0  4.5 6 0  5 6 0  5.5 6 0  6 6 0  6.5 6 0  7 6 0  7.5 6 0  8 6 0  8.5 6 0  9 6 0  9.5 6 0  10 6 0  10.5 6 0  11 6 0  11.5 6 0  12 6 0  12.5 6 0  13 6 0  13.5 6 0  14 6 0  14.5 6 0  15 6 0  15.5 6 0  16 6 0  16.5 6 0  17 6 0  17.5 6 0  18 6 0  18.5 6 0  19 6 0  19.5 6 0  20 6 0  0 6.5 0  0.5 6.5 0  1 6.5 0  1.5 6.5 0  2 6.5 0  2.5 6.5 0  3 6.5 0  3.5 6.5 0  4 6.5 0  4.5 6.5 0  5 6.5 0  5.5 6.5 0  6 6.5 0  6.5 6.5 0  7 6.5 0  7.5 6.5 0  8 6.5 0  8.5 6.5 0  9 6.5 0  9.5 6.5 0  10 6.5 0  10.5 6.5 0  11 6.5 0  11.5 6.5 0  12 6.5 0  12.5 6.5 0  13 6.5 0  13.5 6.5 0  14 6.5 0  14.5 6.5 0  15 6.5 0  15.5 6.5 0  16 6.5 0  16.5 6.5 0  17 6.5 0  17.5 6.5 0  18 6.5 0  18.5 6.5 0  19 6.5 0  19.5 6.5 0  20 6.5 0  0 7 0  0.5 7 0  1 7 0  1.5 7 0  2 7 0  2.5 7 0  3 7 0  3.5 7 0  4 7 0  4.5 7 0  5 7 0  5.5 7 0  6 7 0  6.5 7 0  7 7 0  7.5 7 0  8 7 0  8.5 7 0  9 7 0  9.5 7 0  10 7 0  10.5 7 0  11 7 0  11.5 7 0  12 7 0  12.5 7 0  13 7 0  13.5 7 0  14 7 0  14.5 7 0  15 7 0  15.5 7 0  16 7 0  16.5 7 0  17 7 0  17.5 7 0  18 7 0  18.5 7 0  19 7 0  19.5 7 0  20 7 0  0 7.5 0  0.5 7.5 0  1 7.5 0  1.5 7.5 0  2 7.5 0  2.5 7.5 0  3 7.5 0  3.5 7.5 0  4 7.5 0  4.5 7.5 0  5 7.5 0  5.5 7.5 0  6 7.5 0  6.5 7.5 0  7 7.5 0  7.5 7.5 0  8 7.5 0  8.5 7.5 0  9 7.5 0  9.5 7.5 0  10 7.5 0  10.5 7.5 0  11 7.5 0  11.5 7.5 0  12 7.5 0  12.5 7.5 0  13 7.5 0  13.5 7.5 0  14 7.5 0  14.5 7.5 0  15 7.5 0  15.5 7.5 0  16 7.5 0  16.5 7.5 0  17 7.5 0  17.5 7.5 0  18 7.5 0  18.5 7.5 0  19 7.5 0  19.5 7.5 0  20 7.5 0  0 8 0  0.5 8 0  1 8 0  1.5 8 0  2 8 0  2.5 8 0  3 8 0  3.5 8 0  4 8 0  4.5 8 0  5 8 0  5.5 8 0  6 8 0  6.5 8 0  7 8 0  7.5 8 0  8 8 0  8.5 8 0  9 8 0  9.5 8 0  10 8 0  10.5 8 0  11 8 0  11.5 8 0  12 8 0  12.5 8 0  13 8 0  13.5 8 0  14 8 0  14.5 8 0  15 8 0  15.5 8 0  16 8 0  16.5 8 0  17 8 0  17.5 8 0  18 8 0  18.5 8 0  19 8 0  19.5 8 0  20 8 0  0 8.5 0  0.5 8.5 0  1 8.5 0  1.5 8.5 0  2 8.5 0  2.5 8.5 0  3 8.5 0  3.5 8.5 0  4 8.5 0  4.5 8.5 0  5 8.5 0  5.5 8.5 0  6 8.5 0  6.5 8.5 0  7 8.5 0  7.5 8.5 0  8 8.5 0  8.5 8.5 0  9 8.5 0  9.5 8.5 0  10 8.5 0  10.5 8.5 0  11 8.5 0  11.5 8.5 0  12 8.5 0  12.5 8.5 0  13 8.5 0  13.5 8.5 0  14 8.5 0  14.5 8.5 0  15 8.5 0  15.5 8.5 0  16 8.5 0  16.5 8.5 0  17 8.5 0  17.5 8.5 0  18 8.5 0  18.5 8.5 0  19 8.5 0  19.5 8.5 0  20 8.5 0  0 9 0  0.5 9 0  1 9 0  1.5 9 0  2 9 0  2.5 9 0  3 9 0  3.5 9 0  4 9 0  4.5 9 0  5 9 0  5.5 9 0  6 9 0  6.5 9 0  7 9 0  7.5 9 0  8 9 0  8.5 9 0  9 9 0  9.5 9 0  10 9 0  10.5 9 0  11 9 0  11.5 9 0  12 9 0  12.5 9 0  13 9 0  13.5 9 0  14 9 0  14.5 9 0  15 9 0  15.5 9 0  16 9 0  16.5 9 0  17 9 0  17.5 9 0  18 9 0  18.5 9 0  19 9 0  19.5 9 0  20 9 0  0 9.5 0  0.5 9.5 0  1 9.5 0  1.5 9.5 0  2 9.5 0  2.5 9.5 0  3 9.5 0  3.5 9.5 0  4 9.5 0  4.5 9.5 0  5 9.5 0  5.5 9.5 0  6 9.5 0  6.5 9.5 0  7 9.5 0  7.5 9.5 0  8 9.5 0  8.5 9.5 0  9 9.5 0  9.5 9.5 0  10 9.5 0  10.5 9.5 0  11 9.5 0  11.5 9.5 0  12 9.5 0  12.5 9.5 0  13 9.5 0  13.5 9.5 0  14 9.5 0  14.5 9.5 0  15 9.5 0  15.5 9.5 0  16 9.5 0  16.5 9.5 0  17 9.5 0  17.5 9.5 0  18 9.5 0  18.5 9.5 0  19 9.5 0  19.5 9.5 0  20 9.5 0  0 10 0  0.5 10 0  1 10 0  1.5 10 0  2 10 0  2.5 10 0  3 10 0  3.5 10 0  4 10 0  4.5 10 0  5 10 0  5.5 10 0  6 10 0  6.5 10 0  7 10 0  7.5 10 0  8 10 0  8.5 10 0  9 10 0  9.5 10 0  10 10 0  10.5 10 0  11 10 0  11.5 10 0  12 10 0  12.5 10 0  13 10 0  13.5 10 0  14 10 0  14.5 10 0  15 10 0  15.5 10 0  16 10 0  16.5 10 0  17 10 0  17.5 10 0  18 10 0  18.5 10 0  19 10 0  19.5 10 0  20 10 0  0 10.5 0  0.5 10.5 0  1 10.5 0  1.5 10.5 0  2 10.5 0  2.5 10.5 0  3 10.5 0  3.5 10.5 0  4 10.5 0  4.5 10.5 0  5 10.5 0  5.5 10.5 0  6 10.5 0  6.5 10.5 0  7 10.5 0  7.5 10.5 0  8 10.5 0  8.5 10.5 0  9 10.5 0  9.5 10.5 0  10 10.5 0  10.5 10.5 0  11 10.5 0  11.5 10.5 0  12 10.5 0  12.5 10.5 0  13 10.5 0  13.5 10.5 0  14 10.5 0  14.5 10.5 0  15 10.5 0  15.5 10.5 0  16 10.5 0  16.5 10.5 0  17 10.5 0  17.5 10.5 0  18 10.5 0  18.5 10.5 0  19 10.5 0  19.5 10.5 0  20 10.5 0  0 11 0  0.5 11 0  1 11 0  1.5 11 0  2 11 0  2.5 11 0  3 11 0  3.5 11 0  4 11 0  4.5 11 0  5 11 0  5.5 11 0  6 11 0  6.5 11 0  7 11 0  7.5 11 0  8 11 0  8.5 11 0  9 11 0  9.5 11 0  10 11 0  10.5 11 0  11 11 0  11.5 11 0  12 11 0  12.5 11 0  13 11 0  13.5 11 0  14 11 0  14.5 11 0  15 11 0  15.5 11 0  16 11 0  16.5 11 0  17 11 0  17.5 11 0  18 11 0  18.5 11 0  19 11 0  19.5 11 0  20 11 0  0 11.5 0  0.5 11.5 0  1 11.5 0  1.5 11.5 0  2 11.5 0  2.5 11.5 0  3 11.5 0  3.5 11.5 0  4 11.5 0  4.5 11.5 0  5 11.5 0  5.5 11.5 0  6 11.5 0  6.5 11.5 0  7 11.5 0  7.5 11.5 0  8 11.5 0  8.5 11.5 0  9 11.5 0  9.5 11.5 0  10 11.5 0  10.5 11.5 0  11 11.5 0  11.5 11.5 0  12 11.5 0  12.5 11.5 0  13 11.5 0  13.5 11.5 0  14 11.5 0  14.5 11.5 0  15 11.5 0  15.5 11.5 0  16 11.5 0  16.5 11.5 0  17 11.5 0  17.5 11.5 0  18 11.5 0  18.5 11.5 0  19 11.5 0  19.5 11.5 0  20 11.5 0  0 12 0  0.5 12 0  1 12 0  1.5 12 0  2 12 0  2.5 12 0  3 12 0  3.5 12 0  4 12 0  4.5 12 0  5 12 0  5.5 12 0  6 12 0  6.5 12 0  7 12 0  7.5 12 0  8 12 0  8.5 12 0  9 12 0  9.5 12 0  10 12 0  10.5 12 0  11 12 0  11.5 12 0  12 12 0  12.5 12 0  13 12 0  13.5 12 0  14 12 0  14.5 12 0  
[...]
<PointData  Vectors="f_5623-0"> 
<DataArray  type="Float64"  Name="f_5623-0"  NumberOfComponents="3" format="ascii">0.0000000000000000e+00 0.0000000000000000e+00 0.0000000000000000e+00  -7.9039800201615254e-07 0.0000000000000000e+00 0.0000000000000000e+00  9.5691931153311597e-06 0.0000000000000000e+00 0.0000000000000000e+00  4.6850783892708747e-05 0.0000000000000000e+00 0.0000000000000000e+00  1.2432548229311075e-04 0.0000000000000000e+00 0.0000000000000000e+00  2.5474083306853071e-04 0.0000000000000000e+00 0.0000000000000000e+00  4.5030603602823262e-04 0.0000000000000000e+00 0.0000000000000000e+00  7.2250764044927863e-04 0.0000000000000000e+00 0.0000000000000000e+00  1.0818868216933462e-03 0.0000000000000000e+00 0.0000000000000000e+00  1.5377754038635011e-03 0.0000000000000000e+00 0.0000000000000000e+00  2.0979788805091460e-03 0.0000000000000000e+00 0.0000000000000000e+00  2.7683937464586779e-03 0.0000000000000000e+00 0.0000000000000000e+00  3.5525452863363048e-03 0.0000000000000000e+00 0.0000000000000000e+00  4.4510305499435967e-03 0.0000000000000000e+00 0.0000000000000000e+00  5.4608498996254421e-03 0.0000000000000000e+00 0.0000000000000000e+00  6.5746095052060969e-03 0.0000000000000000e+00 0.0000000000000000e+00  7.7795767817685499e-03 0.0000000000000000e+00 0.0000000000000000e+00  9.0565713863816552e-03 0.0000000000000000e+00 0.0000000000000000e+00  1.0378676483284088e-02 0.0000000000000000e+00 0.0000000000000000e+00  1.1709759134368608e-02 0.0000000000000000e+00 0.0000000000000000e+00  1.3002795555312316e-02 0.0000000000000000e+00 0.0000000000000000e+00  1.4198007349276707e-02 0.0000000000000000e+00 0.0000000000000000e+00  1.5220829438795417e-02 0.0000000000000000e+00 0.0000000000000000e+00  1.5979749879116590e-02 0.0000000000000000e+00 0.0000000000000000e+00  1.6364086337759300e-02 0.0000000000000000e+00 0.0000000000000000e+00  1.6241793430936562e-02 0.0000000000000000e+00 0.0000000000000000e+00  1.5457428014089598e-02 0.0000000000000000e+00 0.0000000000000000e+00  1.3830433276733931e-02 0.0000000000000000e+00 0.0000000000000000e+00  1.1153932793164997e-02 0.0000000000000000e+00 0.0000000000000000e+00  7.1942465326252942e-03 0.0000000000000000e+00 0.0000000000000000e+00  1.6913449436400561e-03 0.0000000000000000e+00 0.0000000000000000e+00  -5.6395629341424412e-03 0.0000000000000000e+00 0.0000000000000000e+00  -1.5105161795955115e-02 0.0000000000000000e+00 0.0000000000000000e+00  -2.7029820073264123e-02 0.0000000000000000e+00 0.0000000000000000e+00  -4.1750085765141984e-02 0.0000000000000000e+00 0.0000000000000000e+00  -5.9608062877937934e-02 0.0000000000000000e+00 0.0000000000000000e+00  -8.0943962959639557e-02 0.0000000000000000e+00 0.0000000000000000e+00  -1.0608819696120683e-01 0.0000000000000000e+00 0.0000000000000000e+00  -1.3535326890726510e-01 0.0000000000000000e+00 0.0000000000000000e+00  -1.6902487962724819e-01 0.0000000000000000e+00 0.0000000000000000e+00  -2.0734876507071565e-01 0.0000000000000000e+00 0.0000000000000000e+00  0.0000000000000000e+00 -7.9039800336887368e-07 0.0000000000000000e+00  -1.0077607366259644e-05 -1.0077607365981602e-05 0.0000000000000000e+00  -6.1262293299783153e-06 -3.2456766572259611e-05 0.0000000000000000e+00  2.4398006008419181e-05 -6.8121529626405470e-05 0.0000000000000000e+00  9.4900957352774342e-05 -1.1744007306504280e-04 0.0000000000000000e+00  2.1826934654728571e-04 -1.8041294822477623e-04 0.0000000000000000e+00  4.0676885121999483e-04 -2.5683557017613674e-04 0.0000000000000000e+00  6.7191103752518150e-04 -3.4638694957033313e-04 0.0000000000000000e+00  1.0242526734706126e-03 -4.4865872869061035e-04 0.0000000000000000e+00  1.4731395255707309e-03 -5.6316131447810866e-04 0.0000000000000000e+00  2.0263922586933364e-03 -6.8932220963206325e-04 0.0000000000000000e+00  2.6899249702674148e-03 -8.2648164439214522e-04 0.0000000000000000e+00  3.4672835435399564e-03 -9.7388721308634240e-04 0.0000000000000000e+00  4.3590888959665740e-03 -1.1306881654045229e-03 0.0000000000000000e+00  5.3623686284981643e-03 -1.2959296913715162e-03 0.0000000000000000e+00  6.4697594932059824e-03 -1.4685474584337896e-03 0.0000000000000000e+00  7.6685626870184233e-03 -1.6473626548108703e-03 0.0000000000000000e+00  8.9396345894754321e-03 -1.8310778160292368e-03 0.0000000000000000e+00  1.0256097654032485e-02 -2.0182737470265597e-03 0.0000000000000000e+00  1.1581860312830381e-02 -2.2074078942303683e-03 0.0000000000000000e+00  1.2869941645218768e-02 -2.3968145672697981e-03 0.0000000000000000e+00  1.4060606941284741e-02 -2.5847074563684720e-03 0.0000000000000000e+00  1.5079334910920802e-02 -2.7691849342988237e-03 0.0000000000000000e+00  1.5834656761872842e-02 -2.9482386664950854e-03 0.0000000000000000e+00  1.6215931977935222e-02 -3.1197660710040043e-03 0.0000000000000000e+00  1.6091155033411530e-02 -3.2815871617339312e-03 0.0000000000000000e+00  1.5304920173737066e-02 -3.4314662612842076e-03 0.0000000000000000e+00  1.3676705117425509e-02 -3.5671389685669984e-03 0.0000000000000000e+00  1.0999664791537800e-02 -3.6863445975925382e-03 0.0000000000000000e+00  7.0401470059235265e-03 -3.7868640532486533e-03 0.0000000000000000e+00  1.5381460104536687e-03 -3.8665627718071248e-03 0.0000000000000000e+00  -5.7911103716174854e-03 -3.9234379334019773e-03 0.0000000000000000e+00  -1.5254294899779735e-02 -3.9556686810193207e-03 0.0000000000000000e+00  -2.7175774308987391e-02 -3.9616676241675296e-03 0.0000000000000000e+00  -4.1892111663886067e-02 -3.9401315806210264e-03 0.0000000000000000e+00  -5.9745456723121308e-02 -3.8900893744327108e-03 0.0000000000000000e+00  -8.1076132521833377e-02 -3.8109438583005468e-03 0.0000000000000000e+00  -1.0621483565142883e-01 -3.7024992892835283e-03 0.0000000000000000e+00  -1.3547495439901916e-01 -3.5649308769168859e-03 0.0000000000000000e+00  -1.6914572122311516e-01 -3.3985010857380850e-03 0.0000000000000000e+00  -2.0748843003717968e-01 -3.2023475491679177e-03 0.0000000000000000e+00  0.0000000000000000e+00 9.5691931155766841e-06 0.0000000000000000e+00  -3.2456766572649652e-05 -6.1262293313009784e-06 0.0000000000000000e+00  -4.9921435554154082e-05 -4.9921435555346122e-05 0.0000000000000000e+00  -4.0528885173551037e-05 -1.2136925731126867e-04 0.0000000000000000e+00  8.8514438023955719e-06 -2.2034339503289795e-04 0.0000000000000000e+00  1.1105989979261570e-04 -3.4657991061322308e-04 0.0000000000000000e+00  2.7838412084391605e-04 -4.9963982164213288e-04 0.0000000000000000e+00  5.2236970634750681e-04 -6.7890646219111042e-04 0.0000000000000000e+00  8.5360975875065201e-04 -8.8359180128332255e-04 0.0000000000000000e+00  1.2814896328209888e-03 -1.1127393145494021e-03 0.0000000000000000e+00  1.8138751940612015e-03 -1.3652213610101599e-03 0.0000000000000000e+00  2.4567333016586560e-03 -1.6397324369199454e-03 0.0000000000000000e+00  3.2136715308236454e-03 -1.9347799309339009e-03 0.0000000000000000e+00  4.0853823156969385e-03 -2.2486735864820973e-03 0.0000000000000000e+00  5.0689751145889484e-03 -2.5795145246738779e-03 0.0000000000000000e+00  6.1571790641053526e-03 -2.9251844923608547e-03 0.0000000000000000e+00  7.3373981425749113e-03 -3.2833359315337781e-03 0.0000000000000000e+00  8.5906014506028604e-03 -3.6513834683072439e-03 0.0000000000000000e+00  9.8900332956456498e-03 -4.0264974632411143e-03 0.0000000000000000e+00  1.1199731912198896e-02 -4.4056003318315813e-03 0.0000000000000000e+00  1.2472852538324510e-02 -4.7853664256566134e-03 0.0000000000000000e+00  1.3649800953016371e-02 -5.1622263538097391e-03 0.0000000000000000e+00  1.4656198203821514e-02 -5.5323767135993310e-03 0.0000000000000000e+00  1.5400716735909811e-02 -5.8917962799156613e-03 0.0000000000000000e+00  1.5772852752375451e-02 -6.2362697605170374e-03 0.0000000000000000e+00  1.5640729054342887e-02 -6.5614202407138162e-03 0.0000000000000000e+00  1.4849055518369930e-02 -6.8627513909249420e-03 0.0000000000000000e+00  1.3217408111502788e-02 -7.1357003614141261e-03 0.0000000000000000e+00  1.0539017619358120e-02 -7.3757020052310678e-03 0.0000000000000000e+00  6.5802800715126465e-03 -7.5782646151037105e-03 0.0000000000000000e+00  1.0812048908912472e-03 -7.7390567061018803e-03 0.0000000000000000e+00  -6.2430034897469448e-03 -7.8540035152389626e-03 0.0000000000000000e+00  -1.5699085482433914e-02 -7.9193908480775527e-03 0.0000000000000000e+00  -2.7611526015128372e-02 -7.9319727315651702e-03 0.0000000000000000e+00  -4.2317064900000388e-02 -7.8890780400980628e-03 0.0000000000000000e+00  -6.0158099702297893e-02 -7.7887095921433721e-03 0.0000000000000000e+00  -8.1475295008978585e-02 -7.6296262336000720e-03 0.0000000000000000e+00  -1.0659982466139507e-01 -7.4113927521398098e-03 0.0000000000000000e+00  -1.3584574876756816e-01 -7.1343792499600454e-03 0.0000000000000000e+00  -1.6950305529396853e-01 -6.7997483453025101e-03 0.0000000000000000e+00  -2.0783168642021152e-01 -6.4099509867572863e-03 0.0000000000000000e+00  0.0000000000000000e+00 4.6850783894998806e-05 0.0000000000000000e+00  -6.8121529626755816e-05 2.4398006006134452e-05 0.0000000000000000e+00  -1.2136925731282806e-04 -4.0528885173790666e-05 0.0000000000000000e+00  -1.4742538146197596e-04 -1.4742538146139000e-04 0.0000000000000000e+00  -1.3338590579832062e-04 -2.9587821114724819e-04 0.0000000000000000e+00  -6.6477403388558079e-05 -4.8535504844348450e-04 0.0000000000000000e+00  6.5579040079182191e-05 -7.1512214779141908e-04 0.0000000000000000e+00  2.7435040229896061e-04 -9.8422700937291852e-04 0.0000000000000000e+00  5.7047029356672681e-04 -1.2914884844418243e-03 0.0000000000000000e+00  9.6337968119178873e-04 -1.6354863253275199e-03 0.0000000000000000e+00  1.4610144482004016e-03 -2.0145492180159148e-03 0.0000000000000000e+00  2.0694265101006541e-03 -2.4267410665786242e-03 0.0000000000000000e+00  2.7923245415219303e-03 -2.8698457223674425e-03 0.0000000000000000e+00  3.6305190565743585e-03 -3.3413506548863720e-03 0.0000000000000000e+00  4.5812552436864020e-03 -3.8384302198100897e-03 0.0000000000000000e+00  5.6374159174362864e-03 -4.3579292583270281e-03 0.0000000000000000e+00  6.7865765379655210e-03 -4.8963478202957381e-03 0.0000000000000000e+00  8.0098948439350781e-03 -5.4498278705675156e-03 0.0000000000000000e+00  9.2808197222722308e-03 -6.0141429252446466e-03 0.0000000000000000e+00  1.0563608078776392e-02 -6.5846916721180645e-03 0.0000000000000000e+00  1.1811645359833395e-02 -7.1564967555275000e-03 0.0000000000000000e+00  1.2965575758812277e-02 -7.7242100447349133e-03 0.0000000000000000e+00  1.3951262769321760e-02 -8.2821258493218312e-03 0.0000000000000000e+00  1.4677620238260518e-02 -8.8242036834241099e-03 0.0000000000000000e+00  1.5034378706853627e-02 -9.3441022939136798e-03 0.0000000000000000e+00  1.4889881273171748e-02 -9.8352267292588936e-03 0.0000000000000000e+00  1.4089036159130586e-02 -1.0290790196515831e-02 0.0000000000000000e+00  1.2451586964499339e-02 -1.0703892283618800e-02 0.0000000000000000e+00  9.7708919414157581e-03 -1.1067614751614266e-02 0.0000000000000000e+00  5.8134245235579437e-03 -1.1375135461585686e-02 0.0000000000000000e+00  3.1921148529833832e-04 -1.1619860037129042e-02 0.0000000000000000e+00  -6.9965950915605382e-03 -1.1795569543780991e-02 0.0000000000000000e+00  -1.6440866498197409e-02 -1.1896580806477694e-02 0.0000000000000000e+00  -2.8338304582284080e-02 -1.1917914051908030e-02 0.0000000000000000e+00  -4.3025957778740187e-02 -1.1855460473788163e-02 0.0000000000000000e+00  -6.0846626819504264e-02 -1.1706140302781103e-02 0.0000000000000000e+00  -8.2141471298732643e-02 -1.1468040841274105e-02 0.0000000000000000e+00  -1.0724223605996701e-01 -1.1140527192797855e-02 0.0000000000000000e+00  -1.3646358136987216e-01 -1.0724338290365716e-02 0.0000000000000000e+00  -1.7009601684391160e-01 -1.0221748300357830e-02 0.0000000000000000e+00  -2.0839991208345066e-01 -9.6370194618987624e-03 0.0000000000000000e+00  0.0000000000000000e+00 1.2432548229407951e-04 0.0000000000000000e+00  -1.1744007306559810e-04 9.4900957350400062e-05 0.0000000000000000e+00  -2.2034339503596858e-04 8.8514438025626238e-06 0.0000000000000000e+00  -2.9587821115103580e-04 -1.3338590579731031e-04 0.0000000000000000e+00  -3.3121305538279255e-04 -3.3121305537977294e-04 0.0000000000000000e+00  -3.1362326767586771e-04 -5.8386571838086969e-04 0.0000000000000000e+00  -2.3083384085804587e-04 -8.9033630782393944e-04 0.0000000000000000e+00  -7.1252605602309242e-05 -1.2493455490450956e-03 0.0000000000000000e+00  1.7580212963529300e-04 -1.6593245007628851e-03 0.0000000000000000e+00  5.1984093879898802e-04 -2.1183970204103559e-03 0.0000000000000000e+00  9.6889108436886274e-04 -2.6243605323701571e-03 0.0000000000000000e+00  1.5291185045854625e-03 -3.1746650263254597e-03 0.0000000000000000e+00  2.2043696148396066e-03 -3.7663906699319022e-03 0.0000000000000000e+00  2.9956174027969866e-03 -4.3962245641870935e-03 0.0000000000000000e+00  3.9002950245721215e-03 -5.0604372904655345e-03 0.0000000000000000e+00  4.9114991132367175e-03 -5.7548600274587346e-03 0.0000000000000000e+00  6.0170446230713775e-03 -6.4748631513558991e-03 0.0000000000000000e+00  7.1983536393010949e-03 -7.2153373735569125e-03 0.0000000000000000e+00  8.4291626632918282e-03 -7.9706786230720958e-03 0.0000000000000000e+00  9.6740370219757198e-03 -8.7347780489441876e-03 0.0000000000000000e+00  1.0886687933445107e-02 -9.5010187041154881e-03 0.0000000000000000e+00  1.2008098142130970e-02 -1.0262280674306989e-02 0.0000000000000000e+00  1.2964476668125479e-02 -1.1010956627959012e-02 0.0000000000000000e+00  1.3665082716053996e-02 -1.1738979972544477e-02 0.0000000000000000e+00  1.3999983446190708e-02 -1.2437867986486913e-02 0.0000000000000000e+00  1.3837839795692421e-02 -1.3098782418825776e-02 0.0000000000000000e+00  1.3023847551245398e-02 -1.3712610058090234e-02 0.0000000000000000e+00  1.1377994769740553e-02 -1.4270065598008481e-02 0.0000000000000000e+00  8.6938271267839474e-03 -1.4761818682592329e-02 0.0000000000000000e+00  4.7379338426052301e-03 -1.5178646201467376e-02 0.0000000000000000e+00  -7.4962882607254014e-04 -1.5511609639044487e-02 0.0000000000000000e+00  -8.0537795287604977e-03 -1.5752255504756025e-02 0.0000000000000000e+00  -1.7481572629742481e-02 -1.5892834604262090e-02 0.0000000000000000e+00  -2.9358014519128658e-02 -1.5926533289639527e-02 0.0000000000000000e+00  -4.4020584314688992e-02 -1.5847707174136451e-02 0.0000000000000000e+00  -6.1812638000510539e-02 -1.5652105777612838e-02 0.0000000000000000e+00  -8.3076005225474550e-02 -1.5337076527427386e-02 0.0000000000000000e+00  -1.0814319735423511e-01 -1.4901740929470445e-02 0.0000000000000000e+00  -1.3732971839400113e-01 -1.4347146870453209e-02 0.0000000000000000e+00  -1.7092700996326970e-01 -1.3676410298755151e-02 0.0000000000000000e+00  -2.0919660464832482e-01 -1.2894801676293427e-02 0.0000000000000000e+00  0.0000000000000000e+00 2.5474083307014004e-04 0.0000000000000000e+00  -1.8041294822709921e-04 2.1826934654692936e-04 0.0000000000000000e+00  -3.4657991061489188e-04 1.1105989979454551e-04 0.0000000000000000e+00  -4.8535504844746086e-04 -6.6477403387823830e-05 0.0000000000000000e+00  -5.8386571838423343e-04 -3.1362326767418795e-04 0.0000000000000000e+00  -6.2941172251869794e-04 -6.2941172251616394e-04 0.0000000000000000e+00  -6.0971509921958376e-04 -1.0125838671740425e-03 0.0000000000000000e+00  -5.1315211985383390e-04 -1.4615544473322447e-03 0.0000000000000000e+00  -3.2898324224087566e-04 -1.9743872638389127e-03 0.0000000000000000e+00  -4.7613756692633689e-05 -2.5487713411172703e-03 0.0000000000000000e+00  3.3909532967414386e-04 -3.1819953426411706e-03 0.0000000000000000e+00  8.3745101328172675e-04 -3.8709198888470038e-03 0.0000000000000000e+00  1.4514718138585725e-03 -4.6119481486917675e-03 0.0000000000000000e+00  2.1823353500106516e-03 -5.4009953464323069e-03 0.0000000000000000e+00  3.0277130246032552e-03 -6.2334579778683275e-03 0.0000000000000000e+00  3.9809738948431844e-03 -7.1041836696564284e-03 0.0000000000000000e+00  5.0302394137358361e-03 -8.0074427704425379e-03 0.0000000000000000e+00  6.1572713302762740e-03 -8.9369029394443401e-03 0.0000000000000000e+00  7.3361771079246667e-03 -9.8856081987246571e-03 0.0000000000000000e+00  8.5319213508484922e-03 -1.0845964140652873e-02 0.0000000000000000e+00  9.6986386019519370e-03 -1.1809731232695613e-02 0.0000000000000000e+00  1.0777753252305245e-02 -1.2768028435860774e-02 0.0000000000000000e+00  1.1695926932533369e-02 -1.3711349644591518e-02 0.0000000000000000e+00  1.2362873267418686e-02 -1.4629595749552625e-02 0.0000000000000000e+00  1.2669104559192004e-02 -1.5512125393962472e-02 0.0000000000000000e+00  1.2483704501875297e-02 -1.6347827694736076e-02 0.0000000000000000e+00  1.1652254129596066e-02 -1.7125220265746807e-02 0.0000000000000000e+00  9.9950722305237657e-03 -1.7832575721640990e-02 0.0000000000000000e+00  7.3059621286895140e-03 -1.8458079342520549e-02 0.0000000000000000e+00  3.3516780501293866e-03 -1.8990019614125206e-02 0.0000000000000000e+00  -2.1276710819216958e-03 -1.9417011804050432e-02 0.0000000000000000e+00  -9.4170822589792289e-03 -1.9728252514431749e-02 0.0000000000000000e+00  -1.8823835390906752e-02 -1.9913800287032879e-02 0.0000000000000000e+00  -3.0673321691341945e-02 -1.9964874013948142e-02 0.0000000000000000e+00  -4.5303570652947878e-02 -1.9874157549308390e-02 0.0000000000000000e+00  -6.3058653292485764e-02 -1.9636096227598716e-02 0.0000000000000000e+00  -8.4281270621246906e-02 -1.9247169837295242e-02 0.0000000000000000e+00  -1.0930494816743438e-01 -1.8706127246071503e-02 0.0000000000000000e+00  -1.3844633324798911e-01 -1.8014167336339877e-02 0.0000000000000000e+00  -1.7199812423893207e-01 -1.7175036507145601e-02 0.0000000000000000e+00  -2.1022315002672398e-01 -1.6194954246411247e-02 0.0000000000000000e+00  0.0000000000000000e+00 4.5030603602752480e-04 0.0000000000000000e+00  -2.5683557017623941e-04 4.0676885122281148e-04 0.0000000000000000e+00  -4.9963982164092258e-04 2.7838412084579779e-04 0.0000000000000000e+00  -7.1512214779060766e-04 6.5579040081881245e-05 0.0000000000000000e+00  -8.9033630782527529e-04 -2.3083384085759851e-04 0.0000000000000000e+00  -1.0125838671715313e-03 -6.0971509921851398e-04 0.0000000000000000e+00  -1.0695780514128001e-03 -1.0695780514155954e-03 0.0000000000000000e+00  -1.0496593023010400e-03 -1.6085556828204985e-03 0.0000000000000000e+00  -9.4202277829623859e-04 -2.2243708515287731e-03 0.0000000000000000e+00  -7.3697733360088443e-04 -2.9143063849770326e-03 0.0000000000000000e+00  -4.2625415571504144e-04 -3.6751730974021349e-03 0.0000000000000000e+00  -3.3805469827636553e-06 -4.5032753188343532e-03 0.0000000000000000e+00  5.3586600244888709e-04 -5.3943742716708563e-03 0.0000000000000000e+00  1.1929074728025150e-03 -6.3436499825646562e-03 0.0000000000000000e+00  1.9657015848272836e-03 -7.3456626319425584e-03 0.0000000000000000e+00  2.8479466032616928e-03 -8.3943144259921929e-03 0.0000000000000000e+00  3.8281362045112883e-03 -9.4828132661297915e-03 0.0000000000000000e+00  4.8884465281167347e-03 -1.0603639705150996e-02 0.0000000000000000e+00  6.0034395872577816e-03 -1.1748518924716990e-02 0.0000000000000000e+00  7.1385713260885440e-03 -1.2908399748862138e-02 0.0000000000000000e+00  8.2484994694677436e-03 -1.4073443024925743e-02 0.0000000000000000e+00  9.2751966733960346e-03 -1.5233022054906599e-02 0.0000000000000000e+00  1.0145889109566448e-02 -1.6375738139740879e-02 0.0000000000000000e+00  1.0770860136056349e-02 -1.7489454689292968e-02 0.0000000000000000e+00  1.1041183419557630e-02 -1.8561353720988969e-02 0.0000000000000000e+00  1.0826479473380357e-02 -1.9578018866934152e-02 0.0000000000000000e+00  9.9728227844565216e-03 -2.0525549153517762e-02 0.0000000000000000e+00  8.3009608999911038e-03 -2.1389707698094368e-02 0.0000000000000000e+00  5.6050377564718845e-03 -2.2156108942004277e-02 0.0000000000000000e+00  1.6520351638223826e-03 -2.2810446946229374e-02 0.0000000000000000e+00  -3.8178486380802622e-03 -2.3338765457054624e-02 0.0000000000000000e+00  -1.1089683719571215e-02 -2.3727767795937955e-02 0.0000000000000000e+00  -2.0471006675013524e-02 -2.3965161143216451e-02 0.0000000000000000e+00  -3.2287665307990585e-02 -2