<?xml version="1.0"?>
<VTKFile type="UnstructuredGrid"  version="0.1"  >
<UnstructuredGrid>
<Piece  NumberOfPoints="1681" NumberOfCells="3200">
<Points>
<DataArray  type="Float64"  NumberOfComponents="3"  format="ascii">0 0 0  0.5 0 0  1 0 0  1.5 0 0  2 0 0  2.5 0 0  3 0 0  3.5 0 0  4 0 0  4.5 0 0  5 0 0  5.5 0 0  6 0 0  6.5 0 0  7 0 0  7.5 0 0  8 0 0  8.5 0 0  9 0 0  9.5 0 0  10 0 0  10.5 0 0  11 0 0  11.5 0 0  12 0 0  12.5 0 0  13 0 0  13.5 0 0  14 0 0  14.5 0 0  15 0 0  15.5 0 0  16 0 0  16.5 0 0  17 0 0  17.5 0 0  18 0 0  18.5 0 0  19 0 0  19.5 0 0  20 0 0  0 0.5 0  0.5 0.5 0  1 0.5 0  1.5 0.5 0  2 0.5 0  2.5 0.5 0  3 0.5 0  3.5 0.5 0  4 0.5 0  4.5 0.5 0  5 0.5 0  5.5 0.5 0  6 0.5 0  6.5 0.5 0  7 0.5 0  7.5 0.5 0  8 0.5 0  8.5 0.5 0  9 0.5 0  9.5 0.5 0  10 0.5 0  10.5 0.5 0  11 0.5 0  11.5 0.5 0  12 0.5 0  12.5 0.5 0  13 0.5 0  13.5 0.5 0  14 0.5 0  14.5 0.5 0  15 0.5 0  15.5 0.5 0  16 0.5 0  16.5 0.5 0  17 0.5 0  17.5 0.5 0  18 0.5 0  18.5 0.5 0  19 0.5 0  19.5 0.5 0  20 0.5 0  0 1 0  0.5 1 0  1 1 0  1.5 1 0  2 1 0  2.5 1 0  3 1 0  3.5 1 0  4 1 0  4.5 1 0  5 1 0  5.5 1 0  6 1 0  6.5 1 0  7 1 0  7.5 1 0  8 1 0  8.5 1 0  9 1 0  9.5 1 0  10 1 0  10.5 1 0  11 1 0  11.5 1 0  12 1 0  12.5 1 0  13 1 0  13.5 1 0  14 1 0  14.5 1 0  15 1 0  15.5 1 0  16 1 0  16.5 1 0  17 1 0  17.5 1 0  18 1 0  18.5 1 0  19 1 0  19.5 1 0  20 1 0  0 1.5 0  0.5 1.5 0  1 1.5 0  1.5 1.5 0  2 1.5 0  2.5 1.5 0  3 1.5 0  3.5 1.5 0  4 1.5 0  4.5 1.5 0  5 1.5 0  5.5 1.5 0  6 1.5 0  6.5 1.5 0  7 1.5 0  7.5 1.5 0  8 1.5 0  8.5 1.5 0  9 1.5 0  9.5 1.5 0  10 1.5 0  10.5 1.5 0  11 1.5 0  11.5 1.5 0  12 1.5 0  12.5 1.5 0  13 1.5 0  13.5 1.5 0  14 1.5 0  14.5 1.5 0  15 1.5 0  15.5 1.5 0  16 1.5 0  16.5 1.5 0  17 1.5 0  17.5 1.5 0  18 1.5 0  18.5 1.5 0  19 1.5 0  19.5 1.5 0  20 1.5 0  0 2 0  0.5 2 0  1 2 0  1.5 2 0  2 2 0  2.5 2 0  3 2 0  3.5 2 0  4 2 0  4.5 2 0  5 2 0  5.5 2 0  6 2 0  6.5 2 0  7 2 0  7.5 2 0  8 2 0  8.5 2 0  9 2 0  9.5 2 0  10 2 0  10.5 2 0  11 2 0  11.5 2 0  12 2 0  12.5 2 0  13 2 0  13.5 2 0  14 2 0  14.5 2 0  15 2 0  15.5 2 0  16 2 0  16.5 2 0  17 2 0  17.5 2 0  18 2 0  18.5 2 0  19 2 0  19.5 2 0  20 2 0  0 2.5 0  0.5 2.5 0  1 2.5 0  1.5 2.5 0  2 2.5 0  2.5 2.5 0  3 2.5 0  3.5 2.5 0  4 2.5 0  4.5 2.5 0  5 2.5 0  5.5 2.5 0  6 2.5 0  6.5 2.5 0  7 2.5 0  7.5 2.5 0  8 2.5 0  8.5 2.5 0  9 2.5 0  9.5 2.5 0  10 2.5 0  10.5 2.5 0  11 2.5 0  11.5 2.5 0  12 2.5 0  12.5 2.5 0  13 2.5 0  13.5 2.5 0  14 2.5 0  14.5 2.5 0  15 2.5 0  15.5 2.5 0  16 2.5 0  16.5 2.5 0  17 2.5 0  17.5 2.5 0  18 2.5 0  18.5 2.5 0  19 2.5 0  19.5 2.5 0  20 2.5 0  0 3 0  0.5 3 0  1 3 0  1.5 3 0  2 3 0  2.5 3 0  3 3 0  3.5 3 0  4 3 0  4.5 3 0  5 3 0  5.5 3 0  6 3 0  6.5 3 0  7 3 0  7.5 3 0  8 3 0  8.5 3 0  9 3 0  9.5 3 0  10 3 0  10.5 3 0  11 3 0  11.5 3 0  12 3 0  12.5 3 0  13 3 0  13.5 3 0  14 3 0  14.5 3 0  15 3 0  15.5 3 0  16 3 0  16.5 3 0  17 3 0  17.5 3 0  18 3 0  18.5 3 0  19 3 0  19.5 3 0  20 3 0  0 3.5 0  0.5 3.5 0  1 3.5 0  1.5 3.5 0  2 3.5 0  2.5 3.5 0  3 3.5 0  3.5 3.5 0  4 3.5 0  4.5 3.5 0  5 3.5 0  5.5 3.5 0  6 3.5 0  6.5 3.5 0  7 3.5 0  7.5 3.5 0  8 3.5 0  8.5 3.5 0  9 3.5 0  9.5 3.5 0  10 3.5 0  10.5 3.5 0  11 3.5 0  11.5 3.5 0  12 3.5 0  12.5 3.5 0  13 3.5 0  13.5 3.5 0  14 3.5 0  14.5 3.5 0  15 3.5 0  15.5 3.5 0  16 3.5 0  16.5 3.5 0  17 3.5 0  17.5 3.5 0  18 3.5 0  18.5 3.5 0  19 3.5 0  19.5 3.5 0  20 3.5 0  0 4 0  0.5 4 0  1 4 0  1.5 4 0  2 4 0  2.5 4 0  3 4 0  3.5 4 0  4 4 0  4.5 4 0  5 4 0  5.5 4 0  6 4 0  6.5 4 0  7 4 0  7.5 4 0  8 4 0  8.5 4 0  9 4 0  9.5 4 0  10 4 0  10.5 4 0  11 4 0  11.5 4 0  12 4 0  12.5 4 0  13 4 0  13.5 4 0  14 4 0  14.5 4 0  15 4 0  15.5 4 0  16 4 0  16.5 4 0  17 4 0  17.5 4 0  18 4 0  18.5 4 0  19 4 0  19.5 4 0  20 4 0  0 4.5 0  0.5 4.5 0  1 4.5 0  1.5 4.5 0  2 4.5 0  2.5 4.5 0  3 4.5 0  3.5 4.5 0  4 4.5 0  4.5 4.5 0  5 4.5 0  5.5 4.5 0  6 4.5 0  6.5 4.5 0  7 4.5 0  7.5 4.5 0  8 4.5 0  8.5 4.5 0  9 4.5 0  9.5 4.5 0  10 4.5 0  10.5 4.5 0  11 4.5 0  11.5 4.5 0  12 4.5 0  12.5 4.5 0  13 4.5 0  13.5 4.5 0  14 4.5 0  14.5 4.5 0  15 4.5 0  15.5 4.5 0  16 4.5 0  16.5 4.5 0  17 4.5 0  17.5 4.5 0  18 4.5 0  18.5 4.5 0  19 4.5 0  19.5 4.5 0  20 4.5 0  0 5 0  0.5 5 0  1 5 0  1.5 5 0  2 5 0  2.5 5 0  3 5 0  3.5 5 0  4 5 0  4.5 5 0  5 5 0  5.5 5 0  6 5 0  6.5 5 0  7 5 0  7.5 5 0  8 5 0  8.5 5 0  9 5 0  9.5 5 0  10 5 0  10.5 5 0  11 5 0  11.5 5 0  12 5 0  12.5 5 0  13 5 0  13.5 5 0  14 5 0  14.5 5 0  15 5 0  15.5 5 0  16 5 0  16.5 5 0  17 5 0  17.5 5 0  18 5 0  18.5 5 0  19 5 0  19.5 5 0  20 5 0  0 5.5 0  0.5 5.5 0  1 5.5 0  1.5 5.5 0  2 5.5 0  2.5 5.5 0  3 5.5 0  3.5 5.5 0  4 5.5 0  4.5 5.5 0  5 5.5 0  5.5 5.5 0  6 5.5 0  6.5 5.5 0  7 5.5 0  7.5 5.5 0  8 5.5 0  8.5 5.5 0  9 5.5 0  9.5 5.5 0  10 5.5 0  10.5 5.5 0  11 5.5 0  11.5 5.5 0  12 5.5 0  12.5 5.5 0  13 5.5 0  13.5 5.5 0  14 5.5 0  14.5 5.5 0  15 5.5 0  15.5 5.5 0  16 5.5 0  16.5 5.5 0  17 5.5 0  17.5 5.5 0  18 5.5 0  18.5 5.5 0  19 5.5 0  19.5 5.5 0  20 5.5 0  0 6 0  0.5 6 0  1 6 0  1.5 6 0  2 6 0  2.5 6 0  3 6 0  3.5 6 0  4 6 0  4.5 6 0  5 6 0  5.5 6 0  6 6 0  6.5 6 0  7 6 0  7.5 6 0  8 6 0  8.5 6 0  9 6 0  9.5 6 0  10 6 0  10.5 6 0  11 6 0  11.5 6 0  12 6 0  12.5 6 0  13 6 0  13.5 6 0  14 6 0  14.5 6 0  15 6 0  15.5 6 0  16 6 0  16.5 6 0  17 6 0  17.5 6 0  18 6 0  18.5 6 0  19 6 0  19.5 6 0  20 6 0  0 6.5 0  0.5 6.5 0  1 6.5 0  1.5 6.5 0  2 6.5 0  2.5 6.5 0  3 6.5 0  3.5 6.5 0  4 6.5 0  4.5 6.5 0  5 6.5 0  5.5 6.5 0  6 6.5 0  6.5 6.5 0  7 6.5 0  7.5 6.5 0  8 6.5 0  8.5 6.5 0  9 6.5 0  9.5 6.5 0  10 6.5 0  10.5 6.5 0  11 6.5 0  11.5 6.5 0  12 6.5 0  12.5 6.5 0  13 6.5 0  13.5 6.5 0  14 6.5 0  14.5 6.5 0  15 6.5 0  15.5 6.5 0  16 6.5 0  16.5 6.5 0  17 6.5 0  17.5 6.5 0  18 6.5 0  18.5 6.5 0  19 6.5 0  19.5 6.5 0  20 6.5 0  0 7 0  0.5 7 0  1 7 0  1.5 7 0  2 7 0  2.5 7 0  3 7 0  3.5 7 0  4 7 0  4.5 7 0  5 7 0  5.5 7 0  6 7 0  6.5 7 0  7 7 0  7.5 7 0  8 7 0  8.5 7 0  9 7 0  9.5 7 0  10 7 0  10.5 7 0  11 7 0  11.5 7 0  12 7 0  12.5 7 0  13 7 0  13.5 7 0  14 7 0  14.5 7 0  15 7 0  15.5 7 0  16 7 0  16.5 7 0  17 7 0  17.5 7 0  18 7 0  18.5 7 0  19 7 0  19.5 7 0  20 7 0  0 7.5 0  0.5 7.5 0  1 7.5 0  1.5 7.5 0  2 7.5 0  2.5 7.5 0  3 7.5 0  3.5 7.5 0  4 7.5 0  4.5 7.5 0  5 7.5 0  5.5 7.5 0  6 7.5 0  6.5 7.5 0  7 7.5 0  7.5 7.5 0  8 7.5 0  8.5 7.5 0  9 7.5 0  9.5 7.5 0  10 7.5 0  10.5 7.5 0  11 7.5 0  11.5 7.5 0  12 7.5 0  12.5 7.5 0  13 7.5 0  13.5 7.5 0  14 7.5 0  14.5 7.5 0  15 7.5 0  15.5 7.5 0  16 7.5 0  16.5 7.5 0  17 7.5 0  17.5 7.5 0  18 7.5 0  18.5 7.5 0  19 7.5 0  19.5 7.5 0  20 7.5 0  0 8 0  0.5 8 0  1 8 0  1.5 8 0  2 8 0  2.5 8 0  3 8 0  3.5 8 0  4 8 0  4.5 8 0  5 8 0  5.5 8 0  6 8 0  6.5 8 0  7 8 0  7.5 8 0  8 8 0  8.5 8 0  9 8 0  9.5 8 0  10 8 0  10.5 8 0  11 8 0  11.5 8 0  12 8 0  12.5 8 0  13 8 0  13.5 8 0  14 8 0  14.5 8 0  15 8 0  15.5 8 0  16 8 0  16.5 8 0  17 8 0  17.5 8 0  18 8 0  18.5 8 0  19 8 0  19.5 8 0  20 8 0  0 8.5 0  0.5 8.5 0  1 8.5 0  1.5 8.5 0  2 8.5 0  2.5 8.5 0  3 8.5 0  3.5 8.5 0  4 8.5 0  4.5 8.5 0  5 8.5 0  5.5 8.5 0  6 8.5 0  6.5 8.5 0  7 8.5 0  7.5 8.5 0  8 8.5 0  8.5 8.5 0  9 8.5 0  9.5 8.5 0  10 8.5 0  10.5 8.5 0  11 8.5 0  11.5 8.5 0  12 8.5 0  12.5 8.5 0  13 8.5 0  13.5 8.5 0  14 8.5 0  14.5 8.5 0  15 8.5 0  15.5 8.5 0  16 8.5 0  16.5 8.5 0  17 8.5 0  17.5 8.5 0  18 8.5 0  18.5 8.5 0  19 8.5 0  19.5 8.5 0  20 8.5 0  0 9 0  0.5 9 0  1 9 0  1.5 9 0  2 9 0  2.5 9 0  3 9 0  3.5 9 0  4 9 0  4.5 9 0  5 9 0  5.5 9 0  6 9 0  6.5 9 0  7 9 0  7.5 9 0  8 9 0  8.5 9 0  9 9 0  9.5 9 0  10 9 0  10.5 9 0  11 9 0  11.5 9 0  12 9 0  12.5 9 0  13 9 0  13.5 9 0  14 9 0  14.5 9 0  15 9 0  15.5 9 0  16 9 0  16.5 9 0  17 9 0  17.5 9 0  18 9 0  18.5 9 0  19 9 0  19.5 9 0  20 9 0  0 9.5 0  0.5 9.5 0  1 9.5 0  1.5 9.5 0  2 9.5 0  2.5 9.5 0  3 9.5 0  3.5 9.5 0  4 9.5 0  4.5 9.5 0  5 9.5 0  5.5 9.5 0  6 9.5 0  6.5 9.5 0  7 9.5 0  7.5 9.5 0  8 9.5 0  8.5 9.5 0  9 9.5 0  9.5 9.5 0  10 9.5 0  10.5 9.5 0  11 9.5 0  11.5 9.5 0  12 9.5 0  12.5 9.5 0  13 9.5 0  13.5 9.5 0  14 9.5 0  14.5 9.5 0  15 9.5 0  15.5 9.5 0  16 9.5 0  16.5 9.5 0  17 9.5 0  17.5 9.5 0  18 9.5 0  18.5 9.5 0  19 9.5 0  19.5 9.5 0  20 9.5 0  0 10 0  0.5 10 0  1 10 0  1.5 10 0  2 10 0  2.5 10 0  3 10 0  3.5 10 0  4 10 0  4.5 10 0  5 10 0  5.5 10 0  6 10 0  6.5 10 0  7 10 0  7.5 10 0  8 10 0  8.5 10 0  9 10 0  9.5 10 0  10 10 0  10.5 10 0  11 10 0  11.5 10 0  12 10 0  12.5 10 0  13 10 0  13.5 10 0  14 10 0  14.5 10 0  15 10 0  15.5 10 0  16 10 0  16.5 10 0  17 10 0  17.5 10 0  18 10 0  18.5 10 0  19 10 0  19.5 10 0  20 10 0  0 10.5 0  0.5 10.5 0  1 10.5 0  1.5 10.5 0  2 10.5 0  2.5 10.5 0  3 10.5 0  3.5 10.5 0  4 10.5 0  4.5 10.5 0  5 10.5 0  5.5 10.5 0  6 10.5 0  6.5 10.5 0  7 10.5 0  7.5 10.5 0  8 10.5 0  8.5 10.5 0  9 10.5 0  9.5 10.5 0  10 10.5 0  10.5 10.5 0  11 10.5 0  11.5 10.5 0  12 10.5 0  12.5 10.5 0  13 10.5 0  13.5 10.5 0  14 10.5 0  14.5 10.5 0  15 10.5 0  15.5 10.5 0  16 10.5 0  16.5 10.5 0  17 10.5 0  17.5 10.5 0  18 10.5 0  18.5 10.5 0  19 10.5 0  19.5 10.5 0  20 10.5 0  0 11 0  0.5 11 0  1 11 0  1.5 11 0  2 11 0  2.5 11 0  3 11 0  3.5 11 0  4 11 0  4.5 11 0  5 11 0  5.5 11 0  6 11 0  6.5 11 0  7 11 0  7.5 11 0  8 11 0  8.5 11 0  9 11 0  9.5 11 0  10 11 0  10.5 11 0  11 11 0  11.5 11 0  12 11 0  12.5 11 0  13 11 0  13.5 11 0  14 11 0  14.5 11 0  15 11 0  15.5 11 0  16 11 0  16.5 11 0  17 11 0  17.5 11 0  18 11 0  18.5 11 0  19 11 0  19.5 11 0  20 11 0  0 11.5 0  0.5 11.5 0  1 11.5 0  1.5 11.5 0  2 11.5 0  2.5 11.5 0  3 11.5 0  3.5 11.5 0  4 11.5 0  4.5 11.5 0  5 11.5 0  5.5 11.5 0  6 11.5 0  6.5 11.5 0  7 11.5 0  7.5 11.5 0  8 11.5 0  8.5 11.5 0  9 11.5 0  9.5 11.5 0  10 11.5 0  10.5 11.5 0  11 11.5 0  11.5 11.5 0  12 11.5 0  12.5 11.5 0  13 11.5 0  13.5 11.5 0  14 11.5 0  14.5 11.5 0  15 11.5 0  15.5 11.5 0  16 11.5 0  16.5 11.5 0  17 11.5 0  17.5 11.5 0  18 11.5 0  18.5 11.5 0  19 11.5 0  19.5 11.5 0  20 11.5 0  0 12 0  0.5 12 0  1 12 0  1.5 12 0  2 12 0  2.5 12 0  3 12 0  3.5 12 0  4 12 0  4.5 12 0  5 12 0  5.5 12 0  6 12 0  6.5 12 0  7 12 0  7.5 12 0  8 12 0  8.5 12 0  9 12 0  9.5 12 0  10 12 0  10.5 12 0  11 12 0  11.5 12 0  12 12 0  12.5 12 0  13 12 0  13.5 12 0  14 12 0  14.5 12 0  
[...]
<PointData  Vectors="f_5623-0"> 
<DataArray  type="Float64"  Name="f_5623-0"  NumberOfComponents="3" format="ascii">0.0000000000000000e+00 0.0000000000000000e+00 0.0000000000000000e+00  4.5630141096178914e-07 0.0000000000000000e+00 0.0000000000000000e+00  2.3568883499717164e-06 0.0000000000000000e+00 0.0000000000000000e+00  7.5287240532076547e-06 0.0000000000000000e+00 0.0000000000000000e+00  1.7589018835096189e-05 0.0000000000000000e+00 0.0000000000000000e+00  3.4126556167846747e-05 0.0000000000000000e+00 0.0000000000000000e+00  5.8704175691897973e-05 0.0000000000000000e+00 0.0000000000000000e+00  9.2849741211014703e-05 0.0000000000000000e+00 0.0000000000000000e+00  1.3804683582221633e-04 0.0000000000000000e+00 0.0000000000000000e+00  1.9572525505215133e-04 0.0000000000000000e+00 0.0000000000000000e+00  2.6725097556920020e-04 0.0000000000000000e+00 0.0000000000000000e+00  3.5391540943426113e-04 0.0000000000000000e+00 0.0000000000000000e+00  4.5692381017878666e-04 0.0000000000000000e+00 0.0000000000000000e+00  5.7738269818613172e-04 0.0000000000000000e+00 0.0000000000000000e+00  7.1628612959448890e-04 0.0000000000000000e+00 0.0000000000000000e+00  8.7450052916279719e-04 0.0000000000000000e+00 0.0000000000000000e+00  1.0527476034341372e-03 0.0000000000000000e+00 0.0000000000000000e+00  1.2515844760306327e-03 0.0000000000000000e+00 0.0000000000000000e+00  1.4713795264009349e-03 0.0000000000000000e+00 0.0000000000000000e+00  1.7122812786889716e-03 0.0000000000000000e+00 0.0000000000000000e+00  1.9741757817121845e-03 0.0000000000000000e+00 0.0000000000000000e+00  2.2566247829035216e-03 0.0000000000000000e+00 0.0000000000000000e+00  2.5587719344418321e-03 0.0000000000000000e+00 0.0000000000000000e+00  2.8791962645799514e-03 0.0000000000000000e+00 0.0000000000000000e+00  3.2156797838491396e-03 0.0000000000000000e+00 0.0000000000000000e+00  3.5648374995336002e-03 0.0000000000000000e+00 0.0000000000000000e+00  3.9215310024250383e-03 0.0000000000000000e+00 0.0000000000000000e+00  4.2779487602824760e-03 0.0000000000000000e+00 0.0000000000000000e+00  4.6221854798988654e-03 0.0000000000000000e+00 0.0000000000000000e+00  4.9360895799326135e-03 0.0000000000000000e+00 0.0000000000000000e+00  5.1920766739285132e-03 0.0000000000000000e+00 0.0000000000000000e+00  5.3485411257616711e-03 0.0000000000000000e+00 0.0000000000000000e+00  5.3434638739380900e-03 0.0000000000000000e+00 0.0000000000000000e+00  5.0858582402118612e-03 0.0000000000000000e+00 0.0000000000000000e+00  4.4448823635195936e-03 0.0000000000000000e+00 0.0000000000000000e+00  3.2368553718915621e-03 0.0000000000000000e+00 0.0000000000000000e+00  1.2111051556646397e-03 0.0000000000000000e+00 0.0000000000000000e+00  -1.9634675897179802e-03 0.0000000000000000e+00 0.0000000000000000e+00  -6.7081719615242445e-03 0.0000000000000000e+00 0.0000000000000000e+00  -1.3536896981065392e-02 0.0000000000000000e+00 0.0000000000000000e+00  -2.3046872997660370e-02 0.0000000000000000e+00 0.0000000000000000e+00  0.0000000000000000e+00 4.5630140838872926e-07 0.0000000000000000e+00  -5.6015063402057540e-07 -5.6015063419300251e-07 0.0000000000000000e+00  5.8112271734566564e-07 -3.0998199053533788e-06 0.0000000000000000e+00  4.9607437238679827e-06 -7.1922568663765279e-06 0.0000000000000000e+00  1.4211524786160633e-05 -1.2868816109218146e-05 0.0000000000000000e+00  2.9934909173774293e-05 -2.0122493892676016e-05 0.0000000000000000e+00  5.3698397852486009e-05 -2.8925707192209952e-05 0.0000000000000000e+00  8.7031868683544084e-05 -3.9238704359093721e-05 0.0000000000000000e+00  1.3142036391554845e-04 -5.1011933483237110e-05 0.0000000000000000e+00  1.8829526690570218e-04 -6.4186243250325331e-05 0.0000000000000000e+00  2.5902450153141845e-04 -7.8692388948865735e-05 0.0000000000000000e+00  3.4490187346227305e-04 -9.4450317426764512e-05 0.0000000000000000e+00  4.4713551346377647e-04 -1.1136838521043597e-04 0.0000000000000000e+00  5.6683531848012857e-04 -1.2934257117063844e-04 0.0000000000000000e+00  7.0499922265117494e-04 -1.4825572079576026e-04 0.0000000000000000e+00  8.6249802037440904e-04 -1.6797685458910675e-04 0.0000000000000000e+00  1.0400582571907296e-03 -1.8836057366963064e-04 0.0000000000000000e+00  1.2382423292844268e-03 -2.0924659732653931e-04 0.0000000000000000e+00  1.4574242717181629e-03 -2.3045946874770287e-04 0.0000000000000000e+00  1.6977585805363726e-03 -2.5180846577764466e-04 0.0000000000000000e+00  1.9591375072481251e-03 -2.7308775459500132e-04 0.0000000000000000e+00  2.2411291240079494e-03 -2.9407682572431829e-04 0.0000000000000000e+00  2.5428833887048124e-03 -3.1454125769046374e-04 0.0000000000000000e+00  2.8629854266629872e-03 -3.3423386621162464e-04 0.0000000000000000e+00  3.1992228705796173e-03 -3.5289632318146483e-04 0.0000000000000000e+00  3.5482154879424872e-03 -3.7026137551464958e-04 0.0000000000000000e+00  3.9048281968149363e-03 -3.8605586752414318e-04 0.0000000000000000e+00  4.2612505256462404e-03 -4.0000487363265561e-04 0.0000000000000000e+00  4.6055748025547027e-03 -4.1183737609242388e-04 0.0000000000000000e+00  4.9196420882459367e-03 -4.2129404517502524e-04 0.0000000000000000e+00  5.1758538652171672e-03 -4.2813773529211228e-04 0.0000000000000000e+00  5.3325819550230054e-03 -4.3216718278097851e-04 0.0000000000000000e+00  5.3277757750414337e-03 -4.3323390005067650e-04 0.0000000000000000e+00  5.0704102525600536e-03 -4.3126116784901681e-04 0.0000000000000000e+00  4.4296052442698523e-03 -4.2626206021920566e-04 0.0000000000000000e+00  3.2216555271635783e-03 -4.1835030617108274e-04 0.0000000000000000e+00  1.1958982882436587e-03 -4.0773294637895871e-04 0.0000000000000000e+00  -1.9787081818029885e-03 -3.9466487670858298e-04 0.0000000000000000e+00  -6.7234046579053349e-03 -3.7932212482654480e-04 0.0000000000000000e+00  -1.3552325398476126e-02 -3.6147109311199103e-04 0.0000000000000000e+00  -2.3065195517136976e-02 -3.3951797036615772e-04 0.0000000000000000e+00  0.0000000000000000e+00 2.3568883489085139e-06 0.0000000000000000e+00  -3.0998199050456700e-06 5.8112271729868188e-07 0.0000000000000000e+00  -4.4227929130191186e-06 -4.4227929143209287e-06 0.0000000000000000e+00  -2.4838992909278871e-06 -1.2624282512517506e-05 0.0000000000000000e+00  4.3267018010025865e-06 -2.4008148724813377e-05 0.0000000000000000e+00  1.7607516559399560e-05 -3.8539551584920084e-05 0.0000000000000000e+00  3.8928885500772321e-05 -5.6162782188660225e-05 0.0000000000000000e+00  6.9824562858984357e-05 -7.6801691550997753e-05 0.0000000000000000e+00  1.1178390144086799e-04 -1.0036024283794880e-04 0.0000000000000000e+00  1.6624327745151185e-04 -1.2672240691599868e-04 0.0000000000000000e+00  2.3457658787894785e-04 -1.5575140761813999e-04 0.0000000000000000e+00  3.1808481024633384e-04 -1.8728854091116642e-04 0.0000000000000000e+00  4.1798458796816411e-04 -2.2115176764090242e-04 0.0000000000000000e+00  5.3539575397809158e-04 -2.5713422205746601e-04 0.0000000000000000e+00  6.7132763569974132e-04 -2.9500274027551910e-04 0.0000000000000000e+00  8.2666386761635186e-04 -3.3449649540318770e-04 0.0000000000000000e+00  1.0021452274557566e-03 -3.7532582023122271e-04 0.0000000000000000e+00  1.1983496349011241e-03 -4.1717129858168052e-04 0.0000000000000000e+00  1.4156677897900587e-03 -4.5968320888563514e-04 0.0000000000000000e+00  1.6542717908012191e-03 -5.0248140675766145e-04 0.0000000000000000e+00  1.9140721667744031e-03 -5.4515573764189892e-04 0.0000000000000000e+00  2.1946556080610809e-03 -5.8726707713498204e-04 0.0000000000000000e+00  2.4951906080736687e-03 -6.2834910889378206e-04 0.0000000000000000e+00  2.8142801986220634e-03 -6.6791097277587371e-04 0.0000000000000000e+00  3.1497285669580036e-03 -7.0544095549884096e-04 0.0000000000000000e+00  3.4981697028124365e-03 -7.4041145932886190e-04 0.0000000000000000e+00  3.8544790662139844e-03 -7.7228557488333283e-04 0.0000000000000000e+00  4.2108512022726256e-03 -8.0052569590471510e-04 0.0000000000000000e+00  4.5553754737598052e-03 -8.2460472298180956e-04 0.0000000000000000e+00  4.8698788999326902e-03 -8.4402045026433375e-04 0.0000000000000000e+00  5.1267343070564748e-03 -8.5831361052600831e-04 0.0000000000000000e+00  5.2842668589997760e-03 -8.6708960729461166e-04 0.0000000000000000e+00  5.2803592822615163e-03 -8.7004298399286962e-04 0.0000000000000000e+00  5.0239010179514969e-03 -8.6698195498838889e-04 0.0000000000000000e+00  4.3839145814982316e-03 -8.5784767066340406e-04 0.0000000000000000e+00  3.1766004584010063e-03 -8.4271909685943727e-04 0.0000000000000000e+00  1.1512286297278595e-03 -8.2178877914780232e-04 0.0000000000000000e+00  -2.0232486091188396e-03 -7.9528495993078411e-04 0.0000000000000000e+00  -6.7679610362300748e-03 -7.6329548995172989e-04 0.0000000000000000e+00  -1.3596657154597498e-02 -7.2540993225908264e-04 0.0000000000000000e+00  -2.3107600540584153e-02 -6.8005574658968043e-04 0.0000000000000000e+00  0.0000000000000000e+00 7.5287240551148764e-06 0.0000000000000000e+00  -7.1922568676425720e-06 4.9607437223357645e-06 0.0000000000000000e+00  -1.2624282512713581e-05 -2.4838992928132961e-06 0.0000000000000000e+00  -1.4766790492793955e-05 -1.4766790492587619e-05 0.0000000000000000e+00  -1.2029090167501466e-05 -3.1844239744223824e-05 0.0000000000000000e+00  -2.8174117005731097e-06 -5.3652772426672185e-05 0.0000000000000000e+00  1.4439125499407978e-05 -8.0103485011999911e-05 0.0000000000000000e+00  4.1277784680650011e-05 -1.1108100967574503e-04 0.0000000000000000e+00  7.9193583336989876e-05 -1.4644246696589723e-04 0.0000000000000000e+00  1.2963050430822676e-04 -1.8601601514280913e-04 0.0000000000000000e+00  1.9397204859334882e-04 -2.2959907143634136e-04 0.0000000000000000e+00  2.7353093667902532e-04 -2.7695627920872382e-04 0.0000000000000000e+00  3.6953783533958008e-04 -3.2781730628902083e-04 0.0000000000000000e+00  4.8312898445942396e-04 -3.8187457490444657e-04 0.0000000000000000e+00  6.1533254913693906e-04 -4.3878103312755041e-04 0.0000000000000000e+00  7.6705341303774004e-04 -4.9814808394688559e-04 0.0000000000000000e+00  9.3905592101589620e-04 -5.5954379400112051e-04 0.0000000000000000e+00  1.1319437020720067e-03 -6.2249151083669095e-04 0.0000000000000000e+00  1.3461350413383967e-03 -6.8646902502058108e-04 0.0000000000000000e+00  1.5818311323440120e-03 -7.5090842179813798e-04 0.0000000000000000e+00  1.8389726291110277e-03 -8.1519677583369787e-04 0.0000000000000000e+00  2.1171767673086768e-03 -8.7867785432243920e-04 0.0000000000000000e+00  2.4156422368365794e-03 -9.4065501024035640e-04 0.0000000000000000e+00  2.7330009466359287e-03 -1.0003954730082945e-03 0.0000000000000000e+00  3.0670834059370530e-03 -1.0571362825429029e-03 0.0000000000000000e+00  3.4145457824740020e-03 -1.1100921672431863e-03 0.0000000000000000e+00  3.7702795203597571e-03 -1.1584657335991378e-03 0.0000000000000000e+00  4.1264863362499267e-03 -1.2014603993039060e-03 0.0000000000000000e+00  4.4712507068898595e-03 -1.2382965249712690e-03 0.0000000000000000e+00  4.7863789216093904e-03 -1.2682311105170515e-03 0.0000000000000000e+00  5.0442032782301418e-03 -1.2905811114499296e-03 0.0000000000000000e+00  5.2029853384452339e-03 -1.3047497535460780e-03 0.0000000000000000e+00  5.2005200571974188e-03 -1.3102540361775712e-03 0.0000000000000000e+00  4.9455882329242909e-03 -1.3067498180713941e-03 0.0000000000000000e+00  4.3070933006579158e-03 -1.2940484710156515e-03 0.0000000000000000e+00  3.1011266145064783e-03 -1.2721161035503833e-03 0.0000000000000000e+00  1.0768919552981977e-03 -1.2410426406657701e-03 0.0000000000000000e+00  -2.0966322909795826e-03 -1.2009630433278450e-03 0.0000000000000000e+00  -6.8403818573632286e-03 -1.1519068132339314e-03 0.0000000000000000e+00  -1.3667614774717432e-02 -1.0935514522613298e-03 0.0000000000000000e+00  -2.3175568682404574e-02 -1.0248947583596912e-03 0.0000000000000000e+00  0.0000000000000000e+00 1.7589018835567465e-05 0.0000000000000000e+00  -1.2868816108215811e-05 1.4211524784189718e-05 0.0000000000000000e+00  -2.4008148724329602e-05 4.3267017988096131e-06 0.0000000000000000e+00  -3.1844239743910571e-05 -1.2029090166625971e-05 0.0000000000000000e+00  -3.4792379578813132e-05 -3.4792379578252871e-05 0.0000000000000000e+00  -3.1262108133209784e-05 -6.3874281980640137e-05 0.0000000000000000e+00  -1.9681406558682678e-05 -9.9154900390923162e-05 0.0000000000000000e+00  1.4912763408607411e-06 -1.4048105517983471e-04 0.0000000000000000e+00  3.3758015948359161e-05 -1.8766430437421730e-04 0.0000000000000000e+00  7.8572657566366449e-05 -2.4047863058230249e-04 0.0000000000000000e+00  1.3733151945280586e-04 -2.9865775944407146e-04 0.0000000000000000e+00  2.1136327041894519e-04 -3.6189220343523621e-04 0.0000000000000000e+00  3.0191781763297919e-04 -4.2982614157556937e-04 0.0000000000000000e+00  4.1015405044815290e-04 -5.0205425085643072e-04 0.0000000000000000e+00  5.3712624292271500e-04 -5.7811861595887491e-04 0.0000000000000000e+00  6.8376881207833499e-04 -6.5750585864337012e-04 0.0000000000000000e+00  8.5087892299860648e-04 -7.3964464443242194e-04 0.0000000000000000e+00  1.0390960559836916e-03 -8.2390374046953439e-04 0.0000000000000000e+00  1.2488769884011451e-03 -9.0959081447642700e-04 0.0000000000000000e+00  1.4804635055335712e-03 -9.9595218027273124e-04 0.0000000000000000e+00  1.7338382401947815e-03 -1.0821737104627935e-03 0.0000000000000000e+00  2.0086608860092822e-03 -1.1673831531232427e-03 0.0000000000000000e+00  2.3041719341969176e-03 -1.2506541073915212e-03 0.0000000000000000e+00  2.6190430307557505e-03 -1.3310119348820648e-03 0.0000000000000000e+00  2.9511406204197222e-03 -1.4074419106407626e-03 0.0000000000000000e+00  3.2971508677259818e-03 -1.4788999466298965e-03 0.0000000000000000e+00  3.6519866667360603e-03 -1.5443262430232087e-03 0.0000000000000000e+00  4.0078595149695712e-03 -1.6026622155362457e-03 0.0000000000000000e+00  4.3528484069602852e-03 -1.6528709681728521e-03 0.0000000000000000e+00  4.6687350438158115e-03 -1.6939613621700612e-03 0.0000000000000000e+00  4.9278044742777924e-03 -1.7250152840766382e-03 0.0000000000000000e+00  5.0882460877777940e-03 -1.7452169438337639e-03 0.0000000000000000e+00  5.0877583634798499e-03 -1.7538818827456818e-03 0.0000000000000000e+00  4.8350069820637552e-03 -1.7504818861619410e-03 0.0000000000000000e+00  4.1987747924276805e-03 -1.7346603721203949e-03 0.0000000000000000e+00  2.9950500048740447e-03 -1.7062313952831559e-03 0.0000000000000000e+00  9.7298459170115192e-04 -1.6651545449391566e-03 0.0000000000000000e+00  -2.1983991100252565e-03 -1.6114782958163915e-03 0.0000000000000000e+00  -6.9398451949397076e-03 -1.5452478406556760e-03 0.0000000000000000e+00  -1.3764219145357316e-02 -1.4663878020849180e-03 0.0000000000000000e+00  -2.3268110816316294e-02 -1.3746202455328907e-03 0.0000000000000000e+00  0.0000000000000000e+00 3.4126556165656509e-05 0.0000000000000000e+00  -2.0122493893310586e-05 2.9934909175821222e-05 0.0000000000000000e+00  -3.8539551586153873e-05 1.7607516558696082e-05 0.0000000000000000e+00  -5.3652772428522783e-05 -2.8174117008853434e-06 0.0000000000000000e+00  -6.3874281979584788e-05 -3.1262108133339319e-05 0.0000000000000000e+00  -6.7615210347773470e-05 -6.7615210350526665e-05 0.0000000000000000e+00  -6.3301847139972926e-05 -1.1172835413295539e-04 0.0000000000000000e+00  -4.9387547002022846e-05 -1.6341316227279720e-04 0.0000000000000000e+00  -2.4361788179032673e-05 -2.2243842620009278e-04 0.0000000000000000e+00  1.3241246537755811e-05 -2.8852696398989582e-04 0.0000000000000000e+00  6.4833642584644993e-05 -3.6135207838179975e-04 0.0000000000000000e+00  1.3176390548388022e-04 -4.4053368967035918e-04 0.0000000000000000e+00  2.1530608148108432e-04 -5.2563426295169848e-04 0.0000000000000000e+00  3.1664766571114987e-04 -6.1615466880853638e-04 0.0000000000000000e+00  4.3687607842267064e-04 -7.1153013339042017e-04 0.0000000000000000e+00  5.7696338475997496e-04 -8.1112645366496444e-04 0.0000000000000000e+00  7.3774872734324952e-04 -9.1423667562768869e-04 0.0000000000000000e+00  9.1991756428984718e-04 -1.0200784572001191e-03 0.0000000000000000e+00  1.1239761419589134e-03 -1.1277923612098987e-03 0.0000000000000000e+00  1.3502184922953742e-03 -1.2364413472253097e-03 0.0000000000000000e+00  1.5986813283243994e-03 -1.3450117526409035e-03 0.0000000000000000e+00  1.8690790535851355e-03 -1.4524160737065218e-03 0.0000000000000000e+00  2.1607060020151459e-03 -1.5574978749906532e-03 0.0000000000000000e+00  2.4722849669755833e-03 -1.6590391707536683e-03 0.0000000000000000e+00  2.8017286442029001e-03 -1.7557706308095127e-03 0.0000000000000000e+00  3.1457619406297381e-03 -1.8463849603443329e-03 0.0000000000000000e+00  3.4993259422846546e-03 -1.9295537740901467e-03 0.0000000000000000e+00  3.8546463514739157e-03 -2.0039482051241752e-03 0.0000000000000000e+00  4.1997986927669933e-03 -2.0682633183675054e-03 0.0000000000000000e+00  4.5165399206973014e-03 -2.1212460843023683e-03 0.0000000000000000e+00  4.7771061774726899e-03 -2.1617261528337015e-03 0.0000000000000000e+00  4.9396126496141050e-03 -2.1886479162017019e-03 0.0000000000000000e+00  4.9416603903711621e-03 -2.2011014026317322e-03 0.0000000000000000e+00  4.6918015018637422e-03 -2.1983485723962568e-03 0.0000000000000000e+00  4.0587029097708463e-03 -2.1798409476520447e-03 0.0000000000000000e+00  2.8582560726868969e-03 -2.1452246962239989e-03 0.0000000000000000e+00  8.3956369881581119e-04 -2.0943308349369440e-03 0.0000000000000000e+00  -2.3283227470056707e-03 -2.0271516514575143e-03 0.0000000000000000e+00  -7.0660151588205124e-03 -1.9438109575813005e-03 0.0000000000000000e+00  -1.3886137476708476e-02 -1.8445496250798427e-03 0.0000000000000000e+00  -2.3384948684866808e-02 -1.7297824389467128e-03 0.0000000000000000e+00  0.0000000000000000e+00 5.8704175690485197e-05 0.0000000000000000e+00  -2.8925707190324718e-05 5.3698397851056529e-05 0.0000000000000000e+00  -5.6162782187569877e-05 3.8928885498880232e-05 0.0000000000000000e+00  -8.0103485011458975e-05 1.4439125499036702e-05 0.0000000000000000e+00  -9.9154900389121598e-05 -1.9681406561011230e-05 0.0000000000000000e+00  -1.1172835413226094e-04 -6.3301847139827914e-05 0.0000000000000000e+00  -1.1624821276907557e-04 -1.1624821276669764e-04 0.0000000000000000e+00  -1.1116234061021022e-04 -1.7830008563308122e-04 0.0000000000000000e+00  -9.4950798747255299e-05 -2.4918705176629210e-04 0.0000000000000000e+00  -6.6134089908175849e-05 -3.2858472278121014e-04 0.0000000000000000e+00  -2.3281806384248451e-05 -4.1611029815219052e-04 0.0000000000000000e+00  3.4977891459556409e-05 -5.1131774000519391e-04 0.0000000000000000e+00  1.0994771220271268e-04 -6.1369268581640496e-04 0.0000000000000000e+00  2.0284937265441480e-04 -7.2264725503892561e-04 0.0000000000000000e+00  3.1481019268308461e-04 -8.3751493172157742e-04 0.0000000000000000e+00  4.4684779456261985e-04 -9.5754573264658920e-04 0.0000000000000000e+00  5.9985234822198825e-04 -1.0819019005286563e-03 0.0000000000000000e+00  7.7456542590842252e-04 -1.2096543933458276e-03 0.0000000000000000e+00  9.7155386492398963e-04 -1.3397804731568208e-03 0.0000000000000000e+00  1.1911758967763301e-03 -1.4711627289639884e-03 0.0000000000000000e+00  1.4335348839188129e-03 -1.6025898970140572e-03 0.0000000000000000e+00  1.6984128472554616e-03 -1.7327598662593472e-03 0.0000000000000000e+00  1.9851708688990409e-03 -1.8602852742822160e-03 0.0000000000000000e+00  2.2925953997441620e-03 -1.9837021062037016e-03 0.0000000000000000e+00  2.6186570753377889e-03 -2.1014817001186294e-03 0.0000000000000000e+00  2.9601299893395583e-03 -2.2120465274878412e-03 0.0000000000000000e+00  3.3119922531586925e-03 -2.3137900403121343e-03 0.0000000000000000e+00  3.6664907579498085e-03 -2.4051007343292626e-03 0.0000000000000000e+00  4.0117026638218159e-03 -2.4843903376131123e-03 0.0000000000000000e+00  4.3293636562976049e-03 -2.5501256617472437e-03 0.0000000000000000e+00  4.5916633736228524e-03 -2.6008631268022260e-03 0.0000000000000000e+00  4.7566448977233314e-03 -2.6352843145118557e-03 0.0000000000000000e+00  4.7618143723131582e-03 -2.6522302328770403e-03 0.0000000000000000e+00  4.5156134023000283e-03 -2.6507315524316468e-03 0.0000000000000000e+00  3.8