<?xml version="1.0"?>
<VTKFile type="UnstructuredGrid"  version="0.1"  >
<UnstructuredGrid>
<Piece  NumberOfPoints="1681" NumberOfCells="3200">
<Points>
<DataArray  type="Float64"  NumberOfComponents="3"  format="ascii">0 0 0  0.5 0 0  1 0 0  1.5 0 0  2 0 0  2.5 0 0  3 0 0  3.5 0 0  4 0 0  4.5 0 0  5 0 0  5.5 0 0  6 0 0  6.5 0 0  7 0 0  7.5 0 0  8 0 0  8.5 0 0  9 0 0  9.5 0 0  10 0 0  10.5 0 0  11 0 0  11.5 0 0  12 0 0  12.5 0 0  13 0 0  13.5 0 0  14 0 0  14.5 0 0  15 0 0  15.5 0 0  16 0 0  16.5 0 0  17 0 0  17.5 0 0  18 0 0  18.5 0 0  19 0 0  19.5 0 0  20 0 0  0 0.5 0  0.5 0.5 0  1 0.5 0  1.5 0.5 0  2 0.5 0  2.5 0.5 0  3 0.5 0  3.5 0.5 0  4 0.5 0  4.5 0.5 0  5 0.5 0  5.5 0.5 0  6 0.5 0  6.5 0.5 0  7 0.5 0  7.5 0.5 0  8 0.5 0  8.5 0.5 0  9 0.5 0  9.5 0.5 0  10 0.5 0  10.5 0.5 0  11 0.5 0  11.5 0.5 0  12 0.5 0  12.5 0.5 0  13 0.5 0  13.5 0.5 0  14 0.5 0  14.5 0.5 0  15 0.5 0  15.5 0.5 0  16 0.5 0  16.5 0.5 0  17 0.5 0  17.5 0.5 0  18 0.5 0  18.5 0.5 0  19 0.5 0  19.5 0.5 0  20 0.5 0  0 1 0  0.5 1 0  1 1 0  1.5 1 0  2 1 0  2.5 1 0  3 1 0  3.5 1 0  4 1 0  4.5 1 0  5 1 0  5.5 1 0  6 1 0  6.5 1 0  7 1 0  7.5 1 0  8 1 0  8.5 1 0  9 1 0  9.5 1 0  10 1 0  10.5 1 0  11 1 0  11.5 1 0  12 1 0  12.5 1 0  13 1 0  13.5 1 0  14 1 0  14.5 1 0  15 1 0  15.5 1 0  16 1 0  16.5 1 0  17 1 0  17.5 1 0  18 1 0  18.5 1 0  19 1 0  19.5 1 0  20 1 0  0 1.5 0  0.5 1.5 0  1 1.5 0  1.5 1.5 0  2 1.5 0  2.5 1.5 0  3 1.5 0  3.5 1.5 0  4 1.5 0  4.5 1.5 0  5 1.5 0  5.5 1.5 0  6 1.5 0  6.5 1.5 0  7 1.5 0  7.5 1.5 0  8 1.5 0  8.5 1.5 0  9 1.5 0  9.5 1.5 0  10 1.5 0  10.5 1.5 0  11 1.5 0  11.5 1.5 0  12 1.5 0  12.5 1.5 0  13 1.5 0  13.5 1.5 0  14 1.5 0  14.5 1.5 0  15 1.5 0  15.5 1.5 0  16 1.5 0  16.5 1.5 0  17 1.5 0  17.5 1.5 0  18 1.5 0  18.5 1.5 0  19 1.5 0  19.5 1.5 0  20 1.5 0  0 2 0  0.5 2 0  1 2 0  1.5 2 0  2 2 0  2.5 2 0  3 2 0  3.5 2 0  4 2 0  4.5 2 0  5 2 0  5.5 2 0  6 2 0  6.5 2 0  7 2 0  7.5 2 0  8 2 0  8.5 2 0  9 2 0  9.5 2 0  10 2 0  10.5 2 0  11 2 0  11.5 2 0  12 2 0  12.5 2 0  13 2 0  13.5 2 0  14 2 0  14.5 2 0  15 2 0  15.5 2 0  16 2 0  16.5 2 0  17 2 0  17.5 2 0  18 2 0  18.5 2 0  19 2 0  19.5 2 0  20 2 0  0 2.5 0  0.5 2.5 0  1 2.5 0  1.5 2.5 0  2 2.5 0  2.5 2.5 0  3 2.5 0  3.5 2.5 0  4 2.5 0  4.5 2.5 0  5 2.5 0  5.5 2.5 0  6 2.5 0  6.5 2.5 0  7 2.5 0  7.5 2.5 0  8 2.5 0  8.5 2.5 0  9 2.5 0  9.5 2.5 0  10 2.5 0  10.5 2.5 0  11 2.5 0  11.5 2.5 0  12 2.5 0  12.5 2.5 0  13 2.5 0  13.5 2.5 0  14 2.5 0  14.5 2.5 0  15 2.5 0  15.5 2.5 0  16 2.5 0  16.5 2.5 0  17 2.5 0  17.5 2.5 0  18 2.5 0  18.5 2.5 0  19 2.5 0  19.5 2.5 0  20 2.5 0  0 3 0  0.5 3 0  1 3 0  1.5 3 0  2 3 0  2.5 3 0  3 3 0  3.5 3 0  4 3 0  4.5 3 0  5 3 0  5.5 3 0  6 3 0  6.5 3 0  7 3 0  7.5 3 0  8 3 0  8.5 3 0  9 3 0  9.5 3 0  10 3 0  10.5 3 0  11 3 0  11.5 3 0  12 3 0  12.5 3 0  13 3 0  13.5 3 0  14 3 0  14.5 3 0  15 3 0  15.5 3 0  16 3 0  16.5 3 0  17 3 0  17.5 3 0  18 3 0  18.5 3 0  19 3 0  19.5 3 0  20 3 0  0 3.5 0  0.5 3.5 0  1 3.5 0  1.5 3.5 0  2 3.5 0  2.5 3.5 0  3 3.5 0  3.5 3.5 0  4 3.5 0  4.5 3.5 0  5 3.5 0  5.5 3.5 0  6 3.5 0  6.5 3.5 0  7 3.5 0  7.5 3.5 0  8 3.5 0  8.5 3.5 0  9 3.5 0  9.5 3.5 0  10 3.5 0  10.5 3.5 0  11 3.5 0  11.5 3.5 0  12 3.5 0  12.5 3.5 0  13 3.5 0  13.5 3.5 0  14 3.5 0  14.5 3.5 0  15 3.5 0  15.5 3.5 0  16 3.5 0  16.5 3.5 0  17 3.5 0  17.5 3.5 0  18 3.5 0  18.5 3.5 0  19 3.5 0  19.5 3.5 0  20 3.5 0  0 4 0  0.5 4 0  1 4 0  1.5 4 0  2 4 0  2.5 4 0  3 4 0  3.5 4 0  4 4 0  4.5 4 0  5 4 0  5.5 4 0  6 4 0  6.5 4 0  7 4 0  7.5 4 0  8 4 0  8.5 4 0  9 4 0  9.5 4 0  10 4 0  10.5 4 0  11 4 0  11.5 4 0  12 4 0  12.5 4 0  13 4 0  13.5 4 0  14 4 0  14.5 4 0  15 4 0  15.5 4 0  16 4 0  16.5 4 0  17 4 0  17.5 4 0  18 4 0  18.5 4 0  19 4 0  19.5 4 0  20 4 0  0 4.5 0  0.5 4.5 0  1 4.5 0  1.5 4.5 0  2 4.5 0  2.5 4.5 0  3 4.5 0  3.5 4.5 0  4 4.5 0  4.5 4.5 0  5 4.5 0  5.5 4.5 0  6 4.5 0  6.5 4.5 0  7 4.5 0  7.5 4.5 0  8 4.5 0  8.5 4.5 0  9 4.5 0  9.5 4.5 0  10 4.5 0  10.5 4.5 0  11 4.5 0  11.5 4.5 0  12 4.5 0  12.5 4.5 0  13 4.5 0  13.5 4.5 0  14 4.5 0  14.5 4.5 0  15 4.5 0  15.5 4.5 0  16 4.5 0  16.5 4.5 0  17 4.5 0  17.5 4.5 0  18 4.5 0  18.5 4.5 0  19 4.5 0  19.5 4.5 0  20 4.5 0  0 5 0  0.5 5 0  1 5 0  1.5 5 0  2 5 0  2.5 5 0  3 5 0  3.5 5 0  4 5 0  4.5 5 0  5 5 0  5.5 5 0  6 5 0  6.5 5 0  7 5 0  7.5 5 0  8 5 0  8.5 5 0  9 5 0  9.5 5 0  10 5 0  10.5 5 0  11 5 0  11.5 5 0  12 5 0  12.5 5 0  13 5 0  13.5 5 0  14 5 0  14.5 5 0  15 5 0  15.5 5 0  16 5 0  16.5 5 0  17 5 0  17.5 5 0  18 5 0  18.5 5 0  19 5 0  19.5 5 0  20 5 0  0 5.5 0  0.5 5.5 0  1 5.5 0  1.5 5.5 0  2 5.5 0  2.5 5.5 0  3 5.5 0  3.5 5.5 0  4 5.5 0  4.5 5.5 0  5 5.5 0  5.5 5.5 0  6 5.5 0  6.5 5.5 0  7 5.5 0  7.5 5.5 0  8 5.5 0  8.5 5.5 0  9 5.5 0  9.5 5.5 0  10 5.5 0  10.5 5.5 0  11 5.5 0  11.5 5.5 0  12 5.5 0  12.5 5.5 0  13 5.5 0  13.5 5.5 0  14 5.5 0  14.5 5.5 0  15 5.5 0  15.5 5.5 0  16 5.5 0  16.5 5.5 0  17 5.5 0  17.5 5.5 0  18 5.5 0  18.5 5.5 0  19 5.5 0  19.5 5.5 0  20 5.5 0  0 6 0  0.5 6 0  1 6 0  1.5 6 0  2 6 0  2.5 6 0  3 6 0  3.5 6 0  4 6 0  4.5 6 0  5 6 0  5.5 6 0  6 6 0  6.5 6 0  7 6 0  7.5 6 0  8 6 0  8.5 6 0  9 6 0  9.5 6 0  10 6 0  10.5 6 0  11 6 0  11.5 6 0  12 6 0  12.5 6 0  13 6 0  13.5 6 0  14 6 0  14.5 6 0  15 6 0  15.5 6 0  16 6 0  16.5 6 0  17 6 0  17.5 6 0  18 6 0  18.5 6 0  19 6 0  19.5 6 0  20 6 0  0 6.5 0  0.5 6.5 0  1 6.5 0  1.5 6.5 0  2 6.5 0  2.5 6.5 0  3 6.5 0  3.5 6.5 0  4 6.5 0  4.5 6.5 0  5 6.5 0  5.5 6.5 0  6 6.5 0  6.5 6.5 0  7 6.5 0  7.5 6.5 0  8 6.5 0  8.5 6.5 0  9 6.5 0  9.5 6.5 0  10 6.5 0  10.5 6.5 0  11 6.5 0  11.5 6.5 0  12 6.5 0  12.5 6.5 0  13 6.5 0  13.5 6.5 0  14 6.5 0  14.5 6.5 0  15 6.5 0  15.5 6.5 0  16 6.5 0  16.5 6.5 0  17 6.5 0  17.5 6.5 0  18 6.5 0  18.5 6.5 0  19 6.5 0  19.5 6.5 0  20 6.5 0  0 7 0  0.5 7 0  1 7 0  1.5 7 0  2 7 0  2.5 7 0  3 7 0  3.5 7 0  4 7 0  4.5 7 0  5 7 0  5.5 7 0  6 7 0  6.5 7 0  7 7 0  7.5 7 0  8 7 0  8.5 7 0  9 7 0  9.5 7 0  10 7 0  10.5 7 0  11 7 0  11.5 7 0  12 7 0  12.5 7 0  13 7 0  13.5 7 0  14 7 0  14.5 7 0  15 7 0  15.5 7 0  16 7 0  16.5 7 0  17 7 0  17.5 7 0  18 7 0  18.5 7 0  19 7 0  19.5 7 0  20 7 0  0 7.5 0  0.5 7.5 0  1 7.5 0  1.5 7.5 0  2 7.5 0  2.5 7.5 0  3 7.5 0  3.5 7.5 0  4 7.5 0  4.5 7.5 0  5 7.5 0  5.5 7.5 0  6 7.5 0  6.5 7.5 0  7 7.5 0  7.5 7.5 0  8 7.5 0  8.5 7.5 0  9 7.5 0  9.5 7.5 0  10 7.5 0  10.5 7.5 0  11 7.5 0  11.5 7.5 0  12 7.5 0  12.5 7.5 0  13 7.5 0  13.5 7.5 0  14 7.5 0  14.5 7.5 0  15 7.5 0  15.5 7.5 0  16 7.5 0  16.5 7.5 0  17 7.5 0  17.5 7.5 0  18 7.5 0  18.5 7.5 0  19 7.5 0  19.5 7.5 0  20 7.5 0  0 8 0  0.5 8 0  1 8 0  1.5 8 0  2 8 0  2.5 8 0  3 8 0  3.5 8 0  4 8 0  4.5 8 0  5 8 0  5.5 8 0  6 8 0  6.5 8 0  7 8 0  7.5 8 0  8 8 0  8.5 8 0  9 8 0  9.5 8 0  10 8 0  10.5 8 0  11 8 0  11.5 8 0  12 8 0  12.5 8 0  13 8 0  13.5 8 0  14 8 0  14.5 8 0  15 8 0  15.5 8 0  16 8 0  16.5 8 0  17 8 0  17.5 8 0  18 8 0  18.5 8 0  19 8 0  19.5 8 0  20 8 0  0 8.5 0  0.5 8.5 0  1 8.5 0  1.5 8.5 0  2 8.5 0  2.5 8.5 0  3 8.5 0  3.5 8.5 0  4 8.5 0  4.5 8.5 0  5 8.5 0  5.5 8.5 0  6 8.5 0  6.5 8.5 0  7 8.5 0  7.5 8.5 0  8 8.5 0  8.5 8.5 0  9 8.5 0  9.5 8.5 0  10 8.5 0  10.5 8.5 0  11 8.5 0  11.5 8.5 0  12 8.5 0  12.5 8.5 0  13 8.5 0  13.5 8.5 0  14 8.5 0  14.5 8.5 0  15 8.5 0  15.5 8.5 0  16 8.5 0  16.5 8.5 0  17 8.5 0  17.5 8.5 0  18 8.5 0  18.5 8.5 0  19 8.5 0  19.5 8.5 0  20 8.5 0  0 9 0  0.5 9 0  1 9 0  1.5 9 0  2 9 0  2.5 9 0  3 9 0  3.5 9 0  4 9 0  4.5 9 0  5 9 0  5.5 9 0  6 9 0  6.5 9 0  7 9 0  7.5 9 0  8 9 0  8.5 9 0  9 9 0  9.5 9 0  10 9 0  10.5 9 0  11 9 0  11.5 9 0  12 9 0  12.5 9 0  13 9 0  13.5 9 0  14 9 0  14.5 9 0  15 9 0  15.5 9 0  16 9 0  16.5 9 0  17 9 0  17.5 9 0  18 9 0  18.5 9 0  19 9 0  19.5 9 0  20 9 0  0 9.5 0  0.5 9.5 0  1 9.5 0  1.5 9.5 0  2 9.5 0  2.5 9.5 0  3 9.5 0  3.5 9.5 0  4 9.5 0  4.5 9.5 0  5 9.5 0  5.5 9.5 0  6 9.5 0  6.5 9.5 0  7 9.5 0  7.5 9.5 0  8 9.5 0  8.5 9.5 0  9 9.5 0  9.5 9.5 0  10 9.5 0  10.5 9.5 0  11 9.5 0  11.5 9.5 0  12 9.5 0  12.5 9.5 0  13 9.5 0  13.5 9.5 0  14 9.5 0  14.5 9.5 0  15 9.5 0  15.5 9.5 0  16 9.5 0  16.5 9.5 0  17 9.5 0  17.5 9.5 0  18 9.5 0  18.5 9.5 0  19 9.5 0  19.5 9.5 0  20 9.5 0  0 10 0  0.5 10 0  1 10 0  1.5 10 0  2 10 0  2.5 10 0  3 10 0  3.5 10 0  4 10 0  4.5 10 0  5 10 0  5.5 10 0  6 10 0  6.5 10 0  7 10 0  7.5 10 0  8 10 0  8.5 10 0  9 10 0  9.5 10 0  10 10 0  10.5 10 0  11 10 0  11.5 10 0  12 10 0  12.5 10 0  13 10 0  13.5 10 0  14 10 0  14.5 10 0  15 10 0  15.5 10 0  16 10 0  16.5 10 0  17 10 0  17.5 10 0  18 10 0  18.5 10 0  19 10 0  19.5 10 0  20 10 0  0 10.5 0  0.5 10.5 0  1 10.5 0  1.5 10.5 0  2 10.5 0  2.5 10.5 0  3 10.5 0  3.5 10.5 0  4 10.5 0  4.5 10.5 0  5 10.5 0  5.5 10.5 0  6 10.5 0  6.5 10.5 0  7 10.5 0  7.5 10.5 0  8 10.5 0  8.5 10.5 0  9 10.5 0  9.5 10.5 0  10 10.5 0  10.5 10.5 0  11 10.5 0  11.5 10.5 0  12 10.5 0  12.5 10.5 0  13 10.5 0  13.5 10.5 0  14 10.5 0  14.5 10.5 0  15 10.5 0  15.5 10.5 0  16 10.5 0  16.5 10.5 0  17 10.5 0  17.5 10.5 0  18 10.5 0  18.5 10.5 0  19 10.5 0  19.5 10.5 0  20 10.5 0  0 11 0  0.5 11 0  1 11 0  1.5 11 0  2 11 0  2.5 11 0  3 11 0  3.5 11 0  4 11 0  4.5 11 0  5 11 0  5.5 11 0  6 11 0  6.5 11 0  7 11 0  7.5 11 0  8 11 0  8.5 11 0  9 11 0  9.5 11 0  10 11 0  10.5 11 0  11 11 0  11.5 11 0  12 11 0  12.5 11 0  13 11 0  13.5 11 0  14 11 0  14.5 11 0  15 11 0  15.5 11 0  16 11 0  16.5 11 0  17 11 0  17.5 11 0  18 11 0  18.5 11 0  19 11 0  19.5 11 0  20 11 0  0 11.5 0  0.5 11.5 0  1 11.5 0  1.5 11.5 0  2 11.5 0  2.5 11.5 0  3 11.5 0  3.5 11.5 0  4 11.5 0  4.5 11.5 0  5 11.5 0  5.5 11.5 0  6 11.5 0  6.5 11.5 0  7 11.5 0  7.5 11.5 0  8 11.5 0  8.5 11.5 0  9 11.5 0  9.5 11.5 0  10 11.5 0  10.5 11.5 0  11 11.5 0  11.5 11.5 0  12 11.5 0  12.5 11.5 0  13 11.5 0  13.5 11.5 0  14 11.5 0  14.5 11.5 0  15 11.5 0  15.5 11.5 0  16 11.5 0  16.5 11.5 0  17 11.5 0  17.5 11.5 0  18 11.5 0  18.5 11.5 0  19 11.5 0  19.5 11.5 0  20 11.5 0  0 12 0  0.5 12 0  1 12 0  1.5 12 0  2 12 0  2.5 12 0  3 12 0  3.5 12 0  4 12 0  4.5 12 0  5 12 0  5.5 12 0  6 12 0  6.5 12 0  7 12 0  7.5 12 0  8 12 0  8.5 12 0  9 12 0  9.5 12 0  10 12 0  10.5 12 0  11 12 0  11.5 12 0  12 12 0  12.5 12 0  13 12 0  13.5 12 0  14 12 0  14.5 12 0  
[...]
<PointData  Vectors="f_5623-0"> 
<DataArray  type="Float64"  Name="f_5623-0"  NumberOfComponents="3" format="ascii">0.0000000000000000e+00 0.0000000000000000e+00 0.0000000000000000e+00  2.2873072820358050e-06 0.0000000000000000e+00 0.0000000000000000e+00  1.0993091505673120e-05 0.0000000000000000e+00 0.0000000000000000e+00  3.4854717421761791e-05 0.0000000000000000e+00 0.0000000000000000e+00  8.1396692931947883e-05 0.0000000000000000e+00 0.0000000000000000e+00  1.5796702248958811e-04 0.0000000000000000e+00 0.0000000000000000e+00  2.7176146644016750e-04 0.0000000000000000e+00 0.0000000000000000e+00  4.2977098332942505e-04 0.0000000000000000e+00 0.0000000000000000e+00  6.3871904772311631e-04 0.0000000000000000e+00 0.0000000000000000e+00  9.0498837077010864e-04 0.0000000000000000e+00 0.0000000000000000e+00  1.2345321709011177e-03 0.0000000000000000e+00 0.0000000000000000e+00  1.6327642782411412e-03 0.0000000000000000e+00 0.0000000000000000e+00  2.1044209600457921e-03 0.0000000000000000e+00 0.0000000000000000e+00  2.6533853550689298e-03 0.0000000000000000e+00 0.0000000000000000e+00  3.2824628361488081e-03 0.0000000000000000e+00 0.0000000000000000e+00  3.9930924622712900e-03 0.0000000000000000e+00 0.0000000000000000e+00  4.7849759172608666e-03 0.0000000000000000e+00 0.0000000000000000e+00  5.6556009911731412e-03 0.0000000000000000e+00 0.0000000000000000e+00  6.5996318561058684e-03 0.0000000000000000e+00 0.0000000000000000e+00  7.6081333606506703e-03 0.0000000000000000e+00 0.0000000000000000e+00  8.6675917407523818e-03 0.0000000000000000e+00 0.0000000000000000e+00  9.7586901888440242e-03 0.0000000000000000e+00 0.0000000000000000e+00  1.0854795631422599e-02 0.0000000000000000e+00 0.0000000000000000e+00  1.1920114223907449e-02 0.0000000000000000e+00 0.0000000000000000e+00  1.2907479320458101e-02 0.0000000000000000e+00 0.0000000000000000e+00  1.3755749310546099e-02 0.0000000000000000e+00 0.0000000000000000e+00  1.4386816390396098e-02 0.0000000000000000e+00 0.0000000000000000e+00  1.4702263794191296e-02 0.0000000000000000e+00 0.0000000000000000e+00  1.4579760510919750e-02 0.0000000000000000e+00 0.0000000000000000e+00  1.3869349907899637e-02 0.0000000000000000e+00 0.0000000000000000e+00  1.2389870052068373e-02 0.0000000000000000e+00 0.0000000000000000e+00  9.9258325039378939e-03 0.0000000000000000e+00 0.0000000000000000e+00  6.2251705683598812e-03 0.0000000000000000e+00 0.0000000000000000e+00  9.9832830641733198e-04 0.0000000000000000e+00 0.0000000000000000e+00  -6.0808264016656514e-03 0.0000000000000000e+00 0.0000000000000000e+00  -1.5371842689480497e-02 0.0000000000000000e+00 0.0000000000000000e+00  -2.7262009361100785e-02 0.0000000000000000e+00 0.0000000000000000e+00  -4.2158113369458822e-02 0.0000000000000000e+00 0.0000000000000000e+00  -6.0475791390187862e-02 0.0000000000000000e+00 0.0000000000000000e+00  -8.2626329563817200e-02 0.0000000000000000e+00 0.0000000000000000e+00  -1.0899812129431599e-01 0.0000000000000000e+00 0.0000000000000000e+00  0.0000000000000000e+00 2.2873072778442764e-06 0.0000000000000000e+00  -2.6387977282459473e-06 -2.6387977317738717e-06 0.0000000000000000e+00  2.6061830309807017e-06 -1.4607066960769521e-05 0.0000000000000000e+00  2.2825192336290242e-05 -3.3729013425557014e-05 0.0000000000000000e+00  6.5617059795766041e-05 -6.0190387199753764e-05 0.0000000000000000e+00  1.3840155015596876e-04 -9.3982425321095748e-05 0.0000000000000000e+00  2.4840310092220951e-04 -1.3498862882820923e-04 0.0000000000000000e+00  4.0262546513725628e-04 -1.8303054915241016e-04 0.0000000000000000e+00  6.0780047377862801e-04 -2.3788222667137484e-04 0.0000000000000000e+00  8.7031875027589070e-04 -2.9927277390425655e-04 0.0000000000000000e+00  1.1961424484271928e-03 -3.6688496709425206e-04 0.0000000000000000e+00  1.5906959637890135e-03 -4.4035248515466376e-04 0.0000000000000000e+00  2.0587280366438864e-03 -5.1925668487223103e-04 0.0000000000000000e+00  2.6041363064933957e-03 -6.0312326799207136e-04 0.0000000000000000e+00  3.2297426927853446e-03 -6.9141904464508860e-04 0.0000000000000000e+00  3.9370047774604606e-03 -7.8354896332796808e-04 0.0000000000000000e+00  4.7256445843127451e-03 -8.7885358089003743e-04 0.0000000000000000e+00  5.5931718025999900e-03 -9.7660716134025257e-04 0.0000000000000000e+00  6.5342736956664899e-03 -1.0760166123901401e-03 0.0000000000000000e+00  7.5400389094746707e-03 -1.1762214887573624e-03 0.0000000000000000e+00  8.5969775739724759e-03 -1.2762953107766472e-03 0.0000000000000000e+00  9.6857961442007832e-03 -1.3752484626757687e-03 0.0000000000000000e+00  1.0779883351461780e-02 -1.4720329461076806e-03 0.0000000000000000e+00  1.1843464816928946e-02 -1.5655492670104932e-03 0.0000000000000000e+00  1.2829390160480380e-02 -1.6546557242602489e-03 0.0000000000000000e+00  1.3676530111607620e-02 -1.7381803387584260e-03 0.0000000000000000e+00  1.4306784849643607e-02 -1.8149356028682195e-03 0.0000000000000000e+00  1.4621741296330088e-02 -1.8837361277129940e-03 0.0000000000000000e+00  1.4499068601009989e-02 -1.9434191045940132e-03 0.0000000000000000e+00  1.3788808420695889e-02 -1.9928672595863018e-03 0.0000000000000000e+00  1.2309797850029211e-02 -2.0310336594703150e-03 0.0000000000000000e+00  9.8465516017507450e-03 -2.0569673320970342e-03 0.0000000000000000e+00  6.1470138591449321e-03 -2.0698382385213746e-03 0.0000000000000000e+00  9.2164997080796437e-04 -2.0689597650536055e-03 0.0000000000000000e+00  -6.1556407394868376e-03 -2.0538067114327279e-03 0.0000000000000000e+00  -1.5444372866763234e-02 -2.0240267910681094e-03 0.0000000000000000e+00  -2.7331821243372679e-02 -1.9794434607456426e-03 0.0000000000000000e+00  -4.2224854534752269e-02 -1.9200445420341243e-03 0.0000000000000000e+00  -6.0539577556415862e-02 -1.8459320607262316e-03 0.0000000000000000e+00  -8.2689568989746373e-02 -1.7571291667692107e-03 0.0000000000000000e+00  -1.0907487921415078e-01 -1.6529124638331840e-03 0.0000000000000000e+00  0.0000000000000000e+00 1.0993091498933535e-05 0.0000000000000000e+00  -1.4607066961424132e-05 2.6061830291988243e-06 0.0000000000000000e+00  -2.0854384587740889e-05 -2.0854384585112919e-05 0.0000000000000000e+00  -1.1984667883694434e-05 -5.9168170565337726e-05 0.0000000000000000e+00  1.9462642649677229e-05 -1.1226468322925072e-04 0.0000000000000000e+00  8.0885288391097958e-05 -1.7999455851226652e-04 0.0000000000000000e+00  1.7952032090977601e-04 -2.6211239063568379e-04 0.0000000000000000e+00  3.2239043605401157e-04 -3.5827583829575586e-04 0.0000000000000000e+00  5.1624808987728321e-04 -4.6804856004682981e-04 0.0000000000000000e+00  7.6750690779565792e-04 -5.9090098018941704e-04 0.0000000000000000e+00  1.0821557425494302e-03 -7.2620805785312051e-04 0.0000000000000000e+00  1.4656504350106169e-03 -8.7324489598589639e-04 0.0000000000000000e+00  1.9227766219311513e-03 -1.0311811128131201e-03 0.0000000000000000e+00  2.4574747053068636e-03 -1.1990746693372448e-03 0.0000000000000000e+00  3.0726154018914697e-03 -1.3758656666947723e-03 0.0000000000000000e+00  3.7697110649743031e-03 -1.5603705368408209e-03 0.0000000000000000e+00  4.5485441701171051e-03 -1.7512770219804581e-03 0.0000000000000000e+00  5.4066899974387558e-03 -1.9471403445195294e-03 0.0000000000000000e+00  6.3389057320275945e-03 -2.1463809918472868e-03 0.0000000000000000e+00  7.3363531788600243e-03 -2.3472845687995173e-03 0.0000000000000000e+00  8.3856174727236742e-03 -2.5480041979897760e-03 0.0000000000000000e+00  9.4674802286029147e-03 -2.7465659694293999e-03 0.0000000000000000e+00  1.0555403518488000e-02 -2.9408779511038621e-03 0.0000000000000000e+00  1.1613682265974515e-02 -3.1287432662617009e-03 0.0000000000000000e+00  1.2595228960273179e-02 -3.3078777147800410e-03 0.0000000000000000e+00  1.3438968300454806e-02 -3.4759323562919666e-03 0.0000000000000000e+00  1.4066843138184680e-02 -3.6305213712952925e-03 0.0000000000000000e+00  1.4380469615591248e-02 -3.7692553576748138e-03 0.0000000000000000e+00  1.4257530928326516e-02 -3.8897799876267316e-03 0.0000000000000000e+00  1.3548066490113577e-02 -3.9898196243033021e-03 0.0000000000000000e+00  1.2070894458094440e-02 -4.0672250657285353e-03 0.0000000000000000e+00  9.6104941771445324e-03 -4.1200240444071194e-03 0.0000000000000000e+00  5.9147586713656922e-03 -4.1464724868953600e-03 0.0000000000000000e+00  6.9408666816200804e-04 -4.1451038713998375e-03 0.0000000000000000e+00  -6.3777058708122314e-03 -4.1147733381704877e-03 0.0000000000000000e+00  -1.5660238855607078e-02 -4.0546923827959177e-03 0.0000000000000000e+00  -2.7540927620560866e-02 -3.9644485107225326e-03 0.0000000000000000e+00  -4.2426844208906481e-02 -3.8440015945900297e-03 0.0000000000000000e+00  -6.0734403642726045e-02 -3.6936488182861180e-03 0.0000000000000000e+00  -8.2877561551552709e-02 -3.5139882466296347e-03 0.0000000000000000e+00  -1.0925549445157294e-01 -3.3061869330902613e-03 0.0000000000000000e+00  0.0000000000000000e+00 3.4854717419984207e-05 0.0000000000000000e+00  -3.3729013426521852e-05 2.2825192333751413e-05 0.0000000000000000e+00  -5.9168170564488118e-05 -1.1984667884149145e-05 0.0000000000000000e+00  -6.9321787313379255e-05 -6.9321787313292383e-05 0.0000000000000000e+00  -5.6843338530255550e-05 -1.4896513291642814e-04 0.0000000000000000e+00  -1.4367519762400361e-05 -2.5062225134280631e-04 0.0000000000000000e+00  6.5340276286137233e-05 -3.7388845803069780e-04 0.0000000000000000e+00  1.8931633608805572e-04 -5.1823810890506310e-04 0.0000000000000000e+00  3.6433740297637379e-04 -6.8301892144406143e-04 0.0000000000000000e+00  5.9685023151659496e-04 -8.6744559944611243e-04 0.0000000000000000e+00  8.9288543350905347e-04 -1.0705924655225320e-03 0.0000000000000000e+00  1.2579496474661449e-03 -1.2913851199906788e-03 0.0000000000000000e+00  1.6968888767315527e-03 -1.5285913436524760e-03 0.0000000000000000e+00  2.2137138786811265e-03 -1.7808116150647634e-03 0.0000000000000000e+00  2.8113759103395430e-03 -2.0464696992588114e-03 0.0000000000000000e+00  3.4914779573790981e-03 -2.3238038135693305e-03 0.0000000000000000e+00  4.2539027905909082e-03 -2.6108589141260710e-03 0.0000000000000000e+00  5.0963348407781790e-03 -2.9054806855244725e-03 0.0000000000000000e+00  6.0136480753420268e-03 -3.2053118581573496e-03 0.0000000000000000e+00  6.9971270401042755e-03 -3.5077915198107883e-03 0.0000000000000000e+00  8.0334834230259122e-03 -3.8101581251005975e-03 0.0000000000000000e+00  9.1036265760057033e-03 -4.1094569338341541e-03 0.0000000000000000e+00  1.0181144391730288e-02 -4.4025526208108009e-03 0.0000000000000000e+00  1.1230452164944905e-02 -4.6861477900938947e-03 0.0000000000000000e+00  1.2204573410661059e-02 -4.9568080890685018e-03 0.0000000000000000e+00  1.3042530358965413e-02 -5.2109945443059458e-03 0.0000000000000000e+00  1.3666345643247337e-02 -5.4451036222037952e-03 0.0000000000000000e+00  1.3977693263184494e-02 -5.6555153383537025e-03 0.0000000000000000e+00  1.3854288461938695e-02 -5.8386494834164583e-03 0.0000000000000000e+00  1.3146173505641373e-02 -5.9910296753866903e-03 0.0000000000000000e+00  1.1672137505118800e-02 -6.1093544625004702e-03 0.0000000000000000e+00  9.2165969457229466e-03 -6.1905740626832014e-03 0.0000000000000000e+00  5.5273470508119052e-03 -6.2319705187388209e-03 0.0000000000000000e+00  3.1465334428694278e-04 -6.2312380775856619e-03 0.0000000000000000e+00  -6.7478367641149685e-03 -6.1865594967571696e-03 0.0000000000000000e+00  -1.6019946379873952e-02 -6.0966728469614732e-03 0.0000000000000000e+00  -2.7889326083655481e-02 -5.9609226690272247e-03 0.0000000000000000e+00  -4.2763306732463896e-02 -5.7792909389084582e-03 0.0000000000000000e+00  -6.1058562081040456e-02 -5.5524132390099490e-03 0.0000000000000000e+00  -8.3189251488421878e-02 -5.2816158070970844e-03 0.0000000000000000e+00  -1.0955467590652736e-01 -4.9690492883975885e-03 0.0000000000000000e+00  0.0000000000000000e+00 8.1396692929665922e-05 0.0000000000000000e+00  -6.0190387202158931e-05 6.5617059793399783e-05 0.0000000000000000e+00  -1.1226468323041722e-04 1.9462642650912586e-05 0.0000000000000000e+00  -1.4896513292045308e-04 -5.6843338526897762e-05 0.0000000000000000e+00  -1.6298130699806817e-04 -1.6298130699567024e-04 0.0000000000000000e+00  -1.4697133061110238e-04 -2.9853453485523924e-04 0.0000000000000000e+00  -9.3700303737142318e-05 -4.6295045119750211e-04 0.0000000000000000e+00  3.8843028922139251e-06 -6.5552581805547005e-04 0.0000000000000000e+00  1.5258854533892123e-04 -8.7539652880051961e-04 0.0000000000000000e+00  3.5890109498365995e-04 -1.1215272015057340e-03 0.0000000000000000e+00  6.2890737512704211e-04 -1.3926996641718309e-03 0.0000000000000000e+00  9.6818226986860809e-04 -1.6875004473177514e-03 0.0000000000000000e+00  1.3816540258258069e-03 -2.0043076212375300e-03 0.0000000000000000e+00  1.8734300787635861e-03 -2.3412773930152880e-03 0.0000000000000000e+00  2.4465729943338880e-03 -2.6963309520520256e-03 0.0000000000000000e+00  3.1028115552986916e-03 -3.0671421325577900e-03 0.0000000000000000e+00  3.8421682586201639e-03 -3.4511265420944198e-03 0.0000000000000000e+00  4.6624801424481090e-03 -3.8454328826131893e-03 0.0000000000000000e+00  5.5587850635973515e-03 -4.2469372634885930e-03 0.0000000000000000e+00  6.5225405359966588e-03 -4.6522413722237385e-03 0.0000000000000000e+00  7.5406374466728820e-03 -5.0576754241482029e-03 0.0000000000000000e+00  8.5941670632331824e-03 -5.4593068544433517e-03 0.0000000000000000e+00  9.6568977315793121e-03 -5.8529557375715420e-03 0.0000000000000000e+00  1.0693418925302591e-02 -6.2342179173258093e-03 0.0000000000000000e+00  1.1656916688211616e-02 -6.5984967978391035e-03 0.0000000000000000e+00  1.2486558300458675e-02 -6.9410446760781782e-03 0.0000000000000000e+00  1.3104487840662364e-02 -7.2570143796993666e-03 0.0000000000000000e+00  1.3412470924603978e-02 -7.5415217963333229e-03 0.0000000000000000e+00  1.3288278496942179e-02 -7.7897196193222034e-03 0.0000000000000000e+00  1.2581966926332179e-02 -7.9968822572333842e-03 0.0000000000000000e+00  1.1112292815201676e-02 -8.1585013150475769e-03 0.0000000000000000e+00  8.6635894554953109e-03 -8.2703903008986401e-03 0.0000000000000000e+00  4.9835153159291969e-03 -8.3287961969767590e-03 0.0000000000000000e+00  -2.1785577802536094e-04 -8.3305142462519900e-03 0.0000000000000000e+00  -7.2671225067563400e-03 -8.2730008269252132e-03 0.0000000000000000e+00  -1.6524405219849721e-02 -8.1544778863139825e-03 0.0000000000000000e+00  -2.8377695892267817e-02 -7.9740217169013920e-03 0.0000000000000000e+00  -4.3234699549151705e-02 -7.7316299287425354e-03 0.0000000000000000e+00  -6.1512483580762216e-02 -7.4282634242377171e-03 0.0000000000000000e+00  -8.3625612322610746e-02 -7.0658564915008614e-03 0.0000000000000000e+00  -1.0997379688654826e-01 -6.6472342664997469e-03 0.0000000000000000e+00  0.0000000000000000e+00 1.5796702249247407e-04 0.0000000000000000e+00  -9.3982425321838386e-05 1.3840155015465083e-04 0.0000000000000000e+00  -1.7999455851343426e-04 8.0885288390466749e-05 0.0000000000000000e+00  -2.5062225134510124e-04 -1.4367519760430562e-05 0.0000000000000000e+00  -2.9853453485421380e-04 -1.4697133061255242e-04 0.0000000000000000e+00  -3.1640122319521872e-04 -3.1640122319604792e-04 0.0000000000000000e+00  -2.9698372415984072e-04 -5.2196928239035410e-04 0.0000000000000000e+00  -2.3320964401166088e-04 -7.6280671521616764e-04 0.0000000000000000e+00  -1.1823779553045150e-04 -1.0378498260714864e-03 0.0000000000000000e+00  5.4471143924210448e-05 -1.3458259299799875e-03 0.0000000000000000e+00  2.9106963377474208e-04 -1.6852381037264312e-03 0.0000000000000000e+00  5.9721698039992143e-04 -2.0543487631970686e-03 0.0000000000000000e+00  9.7794413644369305e-04 -2.4511624186092213e-03 0.0000000000000000e+00  1.4374801883864855e-03 -2.8734081076061987e-03 0.0000000000000000e+00  1.9790286222321342e-03 -3.3185221010991737e-03 0.0000000000000000e+00  2.6044783085068853e-03 -3.7836315662466693e-03 0.0000000000000000e+00  3.3140303810534131e-03 -4.2655399655689300e-03 0.0000000000000000e+00  4.1057178431129692e-03 -4.7607150686646135e-03 0.0000000000000000e+00  4.9747899396704511e-03 -5.2652805494073848e-03 0.0000000000000000e+00  5.9129283336199663e-03 -5.7750122319342508e-03 0.0000000000000000e+00  6.9072573427079124e-03 -6.2853401281966707e-03 0.0000000000000000e+00  7.9391066109018010e-03 -6.7913574737623085e-03 0.0000000000000000e+00  8.9824825981938278e-03 -7.2878380115142943e-03 0.0000000000000000e+00  1.0002206568255905e-02 -7.7692627907164479e-03 0.0000000000000000e+00  1.0951683172986271e-02 -8.2298577354234757e-03 0.0000000000000000e+00  1.1770277567852832e-02 -8.6636431853420945e-03 0.0000000000000000e+00  1.2380302884893614e-02 -9.0644965136558037e-03 0.0000000000000000e+00  1.2683656552650933e-02 -9.4262287625132748e-03 0.0000000000000000e+00  1.2558195603160795e-02 -9.7426759790390661e-03 0.0000000000000000e+00  1.1854008534224357e-02 -1.0007805535738530e-02 0.0000000000000000e+00  1.0389822507445435e-02 -1.0215837112956334e-02 0.0000000000000000e+00  7.9498732340490732e-03 -1.0361377125626094e-02 0.0000000000000000e+00  4.2816484129753352e-03 -1.0439564116162358e-02 0.0000000000000000e+00  -9.0502506072139889e-04 -1.0446220981147300e-02 0.0000000000000000e+00  -7.9370691977156682e-03 -1.0378007932473753e-02 0.0000000000000000e+00  -1.7175000869744154e-02 -1.0232568063366856e-02 0.0000000000000000e+00  -2.9007274555373826e-02 -1.0008655663786484e-02 0.0000000000000000e+00  -4.3842112468846763e-02 -9.7062360352693465e-03 0.0000000000000000e+00  -6.2097137483161161e-02 -9.3265426489667000e-03 0.0000000000000000e+00  -8.4187472914128064e-02 -8.8720663581110942e-03 0.0000000000000000e+00  -1.1051326772377149e-01 -8.3464208455789925e-03 0.0000000000000000e+00  0.0000000000000000e+00 2.7176146643702049e-04 0.0000000000000000e+00  -1.3498862882835227e-04 2.4840310092152598e-04 0.0000000000000000e+00  -2.6211239063779972e-04 1.7952032091165352e-04 0.0000000000000000e+00  -3.7388845803184125e-04 6.5340276288446705e-05 0.0000000000000000e+00  -4.6295045119802355e-04 -9.3700303737235667e-05 0.0000000000000000e+00  -5.2196928239050091e-04 -2.9698372416035425e-04 0.0000000000000000e+00  -5.4370017203534760e-04 -5.4370017203801983e-04 0.0000000000000000e+00  -5.2104869574115325e-04 -8.3282949524786116e-04 0.0000000000000000e+00  -4.4713427129342866e-04 -1.1631240333622415e-03 0.0000000000000000e+00  -3.1535968756774490e-04 -1.5330909216220081e-03 0.0000000000000000e+00  -1.1949472728745613e-04 -1.9409730333001592e-03 0.0000000000000000e+00  1.4621896510616210e-04 -2.3847285238775681e-03 0.0000000000000000e+00  4.8693395099529732e-04 -2.8620093282837574e-03 0.0000000000000000e+00  9.0702445587297802e-04 -3.3701391589150247e-03 0.0000000000000000e+00  1.4098631942983182e-03 -3.9060916838443401e-03 0.0000000000000000e+00  1.9975323991226123e-03 -4.4664696812072189e-03 0.0000000000000000e+00  2.6704501273619907e-03 -5.0474860825730633e-03 0.0000000000000000e+00  3.4268885741300594e-03 -5.6449479373931232e-03 0.0000000000000000e+00  4.2623563335091241e-03 -6.2542444509627315e-03 0.0000000000000000e+00  5.1688115500146264e-03 -6.8703403644090801e-03 0.0000000000000000e+00  6.1336681353396320e-03 -7.4877760528343192e-03 0.0000000000000000e+00  7.1385533597845951e-03 -8.1006758107945356e-03 0.0000000000000000e+00  8.1577731634306580e-03 -8.7027658683532776e-03 0.0000000000000000e+00  9.1564428605723051e-03 -9.2874037305675002e-03 0.0000000000000000e+00  1.0088247371707590e-02 -9.8476204532626493e-03 0.0000000000000000e+00  1.0892809001792752e-02 -1.0376177450568680e-02 0.0000000000000000e+00  1.1492664734489280e-02 -1.0865639363174006e-02 0.0000000000000000e+00  1.1789891741803718e-02 -1.1308464377994111e-02 0.0000000000000000e+00  1.1662471536346111e-02 -1.1697113141630642e-02 0.0000000000000000e+00  1.0960550708961367e-02 -1.2024176988936715e-02 0.0000000000000000e+00  9.5028375052766904e-03 -1.2282525523932252e-02 0.0000000000000000e+00  7.0734621733987988e-03 -1.2465472530131229e-02 0.0000000000000000e+00  3.4197126393909500e-03 -1.2566957639812375e-02 0.0000000000000000e+00  -1.7488834726176565e-03 -1.2581739095049697e-02 0.0000