<?xml version="1.0"?>
<VTKFile type="UnstructuredGrid"  version="0.1"  >
<UnstructuredGrid>
<Piece  NumberOfPoints="1681" NumberOfCells="3200">
<Points>
<DataArray  type="Float64"  NumberOfComponents="3"  format="ascii">0 0 0  0.5 0 0  1 0 0  1.5 0 0  2 0 0  2.5 0 0  3 0 0  3.5 0 0  4 0 0  4.5 0 0  5 0 0  5.5 0 0  6 0 0  6.5 0 0  7 0 0  7.5 0 0  8 0 0  8.5 0 0  9 0 0  9.5 0 0  10 0 0  10.5 0 0  11 0 0  11.5 0 0  12 0 0  12.5 0 0  13 0 0  13.5 0 0  14 0 0  14.5 0 0  15 0 0  15.5 0 0  16 0 0  16.5 0 0  17 0 0  17.5 0 0  18 0 0  18.5 0 0  19 0 0  19.5 0 0  20 0 0  0 0.5 0  0.5 0.5 0  1 0.5 0  1.5 0.5 0  2 0.5 0  2.5 0.5 0  3 0.5 0  3.5 0.5 0  4 0.5 0  4.5 0.5 0  5 0.5 0  5.5 0.5 0  6 0.5 0  6.5 0.5 0  7 0.5 0  7.5 0.5 0  8 0.5 0  8.5 0.5 0  9 0.5 0  9.5 0.5 0  10 0.5 0  10.5 0.5 0  11 0.5 0  11.5 0.5 0  12 0.5 0  12.5 0.5 0  13 0.5 0  13.5 0.5 0  14 0.5 0  14.5 0.5 0  15 0.5 0  15.5 0.5 0  16 0.5 0  16.5 0.5 0  17 0.5 0  17.5 0.5 0  18 0.5 0  18.5 0.5 0  19 0.5 0  19.5 0.5 0  20 0.5 0  0 1 0  0.5 1 0  1 1 0  1.5 1 0  2 1 0  2.5 1 0  3 1 0  3.5 1 0  4 1 0  4.5 1 0  5 1 0  5.5 1 0  6 1 0  6.5 1 0  7 1 0  7.5 1 0  8 1 0  8.5 1 0  9 1 0  9.5 1 0  10 1 0  10.5 1 0  11 1 0  11.5 1 0  12 1 0  12.5 1 0  13 1 0  13.5 1 0  14 1 0  14.5 1 0  15 1 0  15.5 1 0  16 1 0  16.5 1 0  17 1 0  17.5 1 0  18 1 0  18.5 1 0  19 1 0  19.5 1 0  20 1 0  0 1.5 0  0.5 1.5 0  1 1.5 0  1.5 1.5 0  2 1.5 0  2.5 1.5 0  3 1.5 0  3.5 1.5 0  4 1.5 0  4.5 1.5 0  5 1.5 0  5.5 1.5 0  6 1.5 0  6.5 1.5 0  7 1.5 0  7.5 1.5 0  8 1.5 0  8.5 1.5 0  9 1.5 0  9.5 1.5 0  10 1.5 0  10.5 1.5 0  11 1.5 0  11.5 1.5 0  12 1.5 0  12.5 1.5 0  13 1.5 0  13.5 1.5 0  14 1.5 0  14.5 1.5 0  15 1.5 0  15.5 1.5 0  16 1.5 0  16.5 1.5 0  17 1.5 0  17.5 1.5 0  18 1.5 0  18.5 1.5 0  19 1.5 0  19.5 1.5 0  20 1.5 0  0 2 0  0.5 2 0  1 2 0  1.5 2 0  2 2 0  2.5 2 0  3 2 0  3.5 2 0  4 2 0  4.5 2 0  5 2 0  5.5 2 0  6 2 0  6.5 2 0  7 2 0  7.5 2 0  8 2 0  8.5 2 0  9 2 0  9.5 2 0  10 2 0  10.5 2 0  11 2 0  11.5 2 0  12 2 0  12.5 2 0  13 2 0  13.5 2 0  14 2 0  14.5 2 0  15 2 0  15.5 2 0  16 2 0  16.5 2 0  17 2 0  17.5 2 0  18 2 0  18.5 2 0  19 2 0  19.5 2 0  20 2 0  0 2.5 0  0.5 2.5 0  1 2.5 0  1.5 2.5 0  2 2.5 0  2.5 2.5 0  3 2.5 0  3.5 2.5 0  4 2.5 0  4.5 2.5 0  5 2.5 0  5.5 2.5 0  6 2.5 0  6.5 2.5 0  7 2.5 0  7.5 2.5 0  8 2.5 0  8.5 2.5 0  9 2.5 0  9.5 2.5 0  10 2.5 0  10.5 2.5 0  11 2.5 0  11.5 2.5 0  12 2.5 0  12.5 2.5 0  13 2.5 0  13.5 2.5 0  14 2.5 0  14.5 2.5 0  15 2.5 0  15.5 2.5 0  16 2.5 0  16.5 2.5 0  17 2.5 0  17.5 2.5 0  18 2.5 0  18.5 2.5 0  19 2.5 0  19.5 2.5 0  20 2.5 0  0 3 0  0.5 3 0  1 3 0  1.5 3 0  2 3 0  2.5 3 0  3 3 0  3.5 3 0  4 3 0  4.5 3 0  5 3 0  5.5 3 0  6 3 0  6.5 3 0  7 3 0  7.5 3 0  8 3 0  8.5 3 0  9 3 0  9.5 3 0  10 3 0  10.5 3 0  11 3 0  11.5 3 0  12 3 0  12.5 3 0  13 3 0  13.5 3 0  14 3 0  14.5 3 0  15 3 0  15.5 3 0  16 3 0  16.5 3 0  17 3 0  17.5 3 0  18 3 0  18.5 3 0  19 3 0  19.5 3 0  20 3 0  0 3.5 0  0.5 3.5 0  1 3.5 0  1.5 3.5 0  2 3.5 0  2.5 3.5 0  3 3.5 0  3.5 3.5 0  4 3.5 0  4.5 3.5 0  5 3.5 0  5.5 3.5 0  6 3.5 0  6.5 3.5 0  7 3.5 0  7.5 3.5 0  8 3.5 0  8.5 3.5 0  9 3.5 0  9.5 3.5 0  10 3.5 0  10.5 3.5 0  11 3.5 0  11.5 3.5 0  12 3.5 0  12.5 3.5 0  13 3.5 0  13.5 3.5 0  14 3.5 0  14.5 3.5 0  15 3.5 0  15.5 3.5 0  16 3.5 0  16.5 3.5 0  17 3.5 0  17.5 3.5 0  18 3.5 0  18.5 3.5 0  19 3.5 0  19.5 3.5 0  20 3.5 0  0 4 0  0.5 4 0  1 4 0  1.5 4 0  2 4 0  2.5 4 0  3 4 0  3.5 4 0  4 4 0  4.5 4 0  5 4 0  5.5 4 0  6 4 0  6.5 4 0  7 4 0  7.5 4 0  8 4 0  8.5 4 0  9 4 0  9.5 4 0  10 4 0  10.5 4 0  11 4 0  11.5 4 0  12 4 0  12.5 4 0  13 4 0  13.5 4 0  14 4 0  14.5 4 0  15 4 0  15.5 4 0  16 4 0  16.5 4 0  17 4 0  17.5 4 0  18 4 0  18.5 4 0  19 4 0  19.5 4 0  20 4 0  0 4.5 0  0.5 4.5 0  1 4.5 0  1.5 4.5 0  2 4.5 0  2.5 4.5 0  3 4.5 0  3.5 4.5 0  4 4.5 0  4.5 4.5 0  5 4.5 0  5.5 4.5 0  6 4.5 0  6.5 4.5 0  7 4.5 0  7.5 4.5 0  8 4.5 0  8.5 4.5 0  9 4.5 0  9.5 4.5 0  10 4.5 0  10.5 4.5 0  11 4.5 0  11.5 4.5 0  12 4.5 0  12.5 4.5 0  13 4.5 0  13.5 4.5 0  14 4.5 0  14.5 4.5 0  15 4.5 0  15.5 4.5 0  16 4.5 0  16.5 4.5 0  17 4.5 0  17.5 4.5 0  18 4.5 0  18.5 4.5 0  19 4.5 0  19.5 4.5 0  20 4.5 0  0 5 0  0.5 5 0  1 5 0  1.5 5 0  2 5 0  2.5 5 0  3 5 0  3.5 5 0  4 5 0  4.5 5 0  5 5 0  5.5 5 0  6 5 0  6.5 5 0  7 5 0  7.5 5 0  8 5 0  8.5 5 0  9 5 0  9.5 5 0  10 5 0  10.5 5 0  11 5 0  11.5 5 0  12 5 0  12.5 5 0  13 5 0  13.5 5 0  14 5 0  14.5 5 0  15 5 0  15.5 5 0  16 5 0  16.5 5 0  17 5 0  17.5 5 0  18 5 0  18.5 5 0  19 5 0  19.5 5 0  20 5 0  0 5.5 0  0.5 5.5 0  1 5.5 0  1.5 5.5 0  2 5.5 0  2.5 5.5 0  3 5.5 0  3.5 5.5 0  4 5.5 0  4.5 5.5 0  5 5.5 0  5.5 5.5 0  6 5.5 0  6.5 5.5 0  7 5.5 0  7.5 5.5 0  8 5.5 0  8.5 5.5 0  9 5.5 0  9.5 5.5 0  10 5.5 0  10.5 5.5 0  11 5.5 0  11.5 5.5 0  12 5.5 0  12.5 5.5 0  13 5.5 0  13.5 5.5 0  14 5.5 0  14.5 5.5 0  15 5.5 0  15.5 5.5 0  16 5.5 0  16.5 5.5 0  17 5.5 0  17.5 5.5 0  18 5.5 0  18.5 5.5 0  19 5.5 0  19.5 5.5 0  20 5.5 0  0 6 0  0.5 6 0  1 6 0  1.5 6 0  2 6 0  2.5 6 0  3 6 0  3.5 6 0  4 6 0  4.5 6 0  5 6 0  5.5 6 0  6 6 0  6.5 6 0  7 6 0  7.5 6 0  8 6 0  8.5 6 0  9 6 0  9.5 6 0  10 6 0  10.5 6 0  11 6 0  11.5 6 0  12 6 0  12.5 6 0  13 6 0  13.5 6 0  14 6 0  14.5 6 0  15 6 0  15.5 6 0  16 6 0  16.5 6 0  17 6 0  17.5 6 0  18 6 0  18.5 6 0  19 6 0  19.5 6 0  20 6 0  0 6.5 0  0.5 6.5 0  1 6.5 0  1.5 6.5 0  2 6.5 0  2.5 6.5 0  3 6.5 0  3.5 6.5 0  4 6.5 0  4.5 6.5 0  5 6.5 0  5.5 6.5 0  6 6.5 0  6.5 6.5 0  7 6.5 0  7.5 6.5 0  8 6.5 0  8.5 6.5 0  9 6.5 0  9.5 6.5 0  10 6.5 0  10.5 6.5 0  11 6.5 0  11.5 6.5 0  12 6.5 0  12.5 6.5 0  13 6.5 0  13.5 6.5 0  14 6.5 0  14.5 6.5 0  15 6.5 0  15.5 6.5 0  16 6.5 0  16.5 6.5 0  17 6.5 0  17.5 6.5 0  18 6.5 0  18.5 6.5 0  19 6.5 0  19.5 6.5 0  20 6.5 0  0 7 0  0.5 7 0  1 7 0  1.5 7 0  2 7 0  2.5 7 0  3 7 0  3.5 7 0  4 7 0  4.5 7 0  5 7 0  5.5 7 0  6 7 0  6.5 7 0  7 7 0  7.5 7 0  8 7 0  8.5 7 0  9 7 0  9.5 7 0  10 7 0  10.5 7 0  11 7 0  11.5 7 0  12 7 0  12.5 7 0  13 7 0  13.5 7 0  14 7 0  14.5 7 0  15 7 0  15.5 7 0  16 7 0  16.5 7 0  17 7 0  17.5 7 0  18 7 0  18.5 7 0  19 7 0  19.5 7 0  20 7 0  0 7.5 0  0.5 7.5 0  1 7.5 0  1.5 7.5 0  2 7.5 0  2.5 7.5 0  3 7.5 0  3.5 7.5 0  4 7.5 0  4.5 7.5 0  5 7.5 0  5.5 7.5 0  6 7.5 0  6.5 7.5 0  7 7.5 0  7.5 7.5 0  8 7.5 0  8.5 7.5 0  9 7.5 0  9.5 7.5 0  10 7.5 0  10.5 7.5 0  11 7.5 0  11.5 7.5 0  12 7.5 0  12.5 7.5 0  13 7.5 0  13.5 7.5 0  14 7.5 0  14.5 7.5 0  15 7.5 0  15.5 7.5 0  16 7.5 0  16.5 7.5 0  17 7.5 0  17.5 7.5 0  18 7.5 0  18.5 7.5 0  19 7.5 0  19.5 7.5 0  20 7.5 0  0 8 0  0.5 8 0  1 8 0  1.5 8 0  2 8 0  2.5 8 0  3 8 0  3.5 8 0  4 8 0  4.5 8 0  5 8 0  5.5 8 0  6 8 0  6.5 8 0  7 8 0  7.5 8 0  8 8 0  8.5 8 0  9 8 0  9.5 8 0  10 8 0  10.5 8 0  11 8 0  11.5 8 0  12 8 0  12.5 8 0  13 8 0  13.5 8 0  14 8 0  14.5 8 0  15 8 0  15.5 8 0  16 8 0  16.5 8 0  17 8 0  17.5 8 0  18 8 0  18.5 8 0  19 8 0  19.5 8 0  20 8 0  0 8.5 0  0.5 8.5 0  1 8.5 0  1.5 8.5 0  2 8.5 0  2.5 8.5 0  3 8.5 0  3.5 8.5 0  4 8.5 0  4.5 8.5 0  5 8.5 0  5.5 8.5 0  6 8.5 0  6.5 8.5 0  7 8.5 0  7.5 8.5 0  8 8.5 0  8.5 8.5 0  9 8.5 0  9.5 8.5 0  10 8.5 0  10.5 8.5 0  11 8.5 0  11.5 8.5 0  12 8.5 0  12.5 8.5 0  13 8.5 0  13.5 8.5 0  14 8.5 0  14.5 8.5 0  15 8.5 0  15.5 8.5 0  16 8.5 0  16.5 8.5 0  17 8.5 0  17.5 8.5 0  18 8.5 0  18.5 8.5 0  19 8.5 0  19.5 8.5 0  20 8.5 0  0 9 0  0.5 9 0  1 9 0  1.5 9 0  2 9 0  2.5 9 0  3 9 0  3.5 9 0  4 9 0  4.5 9 0  5 9 0  5.5 9 0  6 9 0  6.5 9 0  7 9 0  7.5 9 0  8 9 0  8.5 9 0  9 9 0  9.5 9 0  10 9 0  10.5 9 0  11 9 0  11.5 9 0  12 9 0  12.5 9 0  13 9 0  13.5 9 0  14 9 0  14.5 9 0  15 9 0  15.5 9 0  16 9 0  16.5 9 0  17 9 0  17.5 9 0  18 9 0  18.5 9 0  19 9 0  19.5 9 0  20 9 0  0 9.5 0  0.5 9.5 0  1 9.5 0  1.5 9.5 0  2 9.5 0  2.5 9.5 0  3 9.5 0  3.5 9.5 0  4 9.5 0  4.5 9.5 0  5 9.5 0  5.5 9.5 0  6 9.5 0  6.5 9.5 0  7 9.5 0  7.5 9.5 0  8 9.5 0  8.5 9.5 0  9 9.5 0  9.5 9.5 0  10 9.5 0  10.5 9.5 0  11 9.5 0  11.5 9.5 0  12 9.5 0  12.5 9.5 0  13 9.5 0  13.5 9.5 0  14 9.5 0  14.5 9.5 0  15 9.5 0  15.5 9.5 0  16 9.5 0  16.5 9.5 0  17 9.5 0  17.5 9.5 0  18 9.5 0  18.5 9.5 0  19 9.5 0  19.5 9.5 0  20 9.5 0  0 10 0  0.5 10 0  1 10 0  1.5 10 0  2 10 0  2.5 10 0  3 10 0  3.5 10 0  4 10 0  4.5 10 0  5 10 0  5.5 10 0  6 10 0  6.5 10 0  7 10 0  7.5 10 0  8 10 0  8.5 10 0  9 10 0  9.5 10 0  10 10 0  10.5 10 0  11 10 0  11.5 10 0  12 10 0  12.5 10 0  13 10 0  13.5 10 0  14 10 0  14.5 10 0  15 10 0  15.5 10 0  16 10 0  16.5 10 0  17 10 0  17.5 10 0  18 10 0  18.5 10 0  19 10 0  19.5 10 0  20 10 0  0 10.5 0  0.5 10.5 0  1 10.5 0  1.5 10.5 0  2 10.5 0  2.5 10.5 0  3 10.5 0  3.5 10.5 0  4 10.5 0  4.5 10.5 0  5 10.5 0  5.5 10.5 0  6 10.5 0  6.5 10.5 0  7 10.5 0  7.5 10.5 0  8 10.5 0  8.5 10.5 0  9 10.5 0  9.5 10.5 0  10 10.5 0  10.5 10.5 0  11 10.5 0  11.5 10.5 0  12 10.5 0  12.5 10.5 0  13 10.5 0  13.5 10.5 0  14 10.5 0  14.5 10.5 0  15 10.5 0  15.5 10.5 0  16 10.5 0  16.5 10.5 0  17 10.5 0  17.5 10.5 0  18 10.5 0  18.5 10.5 0  19 10.5 0  19.5 10.5 0  20 10.5 0  0 11 0  0.5 11 0  1 11 0  1.5 11 0  2 11 0  2.5 11 0  3 11 0  3.5 11 0  4 11 0  4.5 11 0  5 11 0  5.5 11 0  6 11 0  6.5 11 0  7 11 0  7.5 11 0  8 11 0  8.5 11 0  9 11 0  9.5 11 0  10 11 0  10.5 11 0  11 11 0  11.5 11 0  12 11 0  12.5 11 0  13 11 0  13.5 11 0  14 11 0  14.5 11 0  15 11 0  15.5 11 0  16 11 0  16.5 11 0  17 11 0  17.5 11 0  18 11 0  18.5 11 0  19 11 0  19.5 11 0  20 11 0  0 11.5 0  0.5 11.5 0  1 11.5 0  1.5 11.5 0  2 11.5 0  2.5 11.5 0  3 11.5 0  3.5 11.5 0  4 11.5 0  4.5 11.5 0  5 11.5 0  5.5 11.5 0  6 11.5 0  6.5 11.5 0  7 11.5 0  7.5 11.5 0  8 11.5 0  8.5 11.5 0  9 11.5 0  9.5 11.5 0  10 11.5 0  10.5 11.5 0  11 11.5 0  11.5 11.5 0  12 11.5 0  12.5 11.5 0  13 11.5 0  13.5 11.5 0  14 11.5 0  14.5 11.5 0  15 11.5 0  15.5 11.5 0  16 11.5 0  16.5 11.5 0  17 11.5 0  17.5 11.5 0  18 11.5 0  18.5 11.5 0  19 11.5 0  19.5 11.5 0  20 11.5 0  0 12 0  0.5 12 0  1 12 0  1.5 12 0  2 12 0  2.5 12 0  3 12 0  3.5 12 0  4 12 0  4.5 12 0  5 12 0  5.5 12 0  6 12 0  6.5 12 0  7 12 0  7.5 12 0  8 12 0  8.5 12 0  9 12 0  9.5 12 0  10 12 0  10.5 12 0  11 12 0  11.5 12 0  12 12 0  12.5 12 0  13 12 0  13.5 12 0  14 12 0  14.5 12 0  
[...]
<PointData  Vectors="f_5623-0"> 
<DataArray  type="Float64"  Name="f_5623-0"  NumberOfComponents="3" format="ascii">0.0000000000000000e+00 0.0000000000000000e+00 0.0000000000000000e+00  2.3820261936170451e-06 0.0000000000000000e+00 0.0000000000000000e+00  1.1535954810937370e-05 0.0000000000000000e+00 0.0000000000000000e+00  3.6703187249781209e-05 0.0000000000000000e+00 0.0000000000000000e+00  8.5832792307581821e-05 0.0000000000000000e+00 0.0000000000000000e+00  1.6668217203756521e-04 0.0000000000000000e+00 0.0000000000000000e+00  2.8684145271122395e-04 0.0000000000000000e+00 0.0000000000000000e+00  4.5367536518145404e-04 0.0000000000000000e+00 0.0000000000000000e+00  6.7425348313694092e-04 0.0000000000000000e+00 0.0000000000000000e+00  9.5526813660802448e-04 0.0000000000000000e+00 0.0000000000000000e+00  1.3029345950337401e-03 0.0000000000000000e+00 0.0000000000000000e+00  1.7228671680122314e-03 0.0000000000000000e+00 0.0000000000000000e+00  2.2199233878861255e-03 0.0000000000000000e+00 0.0000000000000000e+00  2.7980063510818268e-03 0.0000000000000000e+00 0.0000000000000000e+00  3.4598126590444870e-03 0.0000000000000000e+00 0.0000000000000000e+00  4.2065102181590586e-03 0.0000000000000000e+00 0.0000000000000000e+00  5.0373264437225482e-03 0.0000000000000000e+00 0.0000000000000000e+00  5.9490232320768988e-03 0.0000000000000000e+00 0.0000000000000000e+00  6.9352305761236832e-03 0.0000000000000000e+00 0.0000000000000000e+00  7.9856061952986671e-03 0.0000000000000000e+00 0.0000000000000000e+00  9.0847845133173594e-03 0.0000000000000000e+00 0.0000000000000000e+00  1.0211075472586902e-02 0.0000000000000000e+00 0.0000000000000000e+00  1.1334873065782050e-02 0.0000000000000000e+00 0.0000000000000000e+00  1.2416736504378113e-02 0.0000000000000000e+00 0.0000000000000000e+00  1.3405115451013361e-02 0.0000000000000000e+00 0.0000000000000000e+00  1.4233706913357312e-02 0.0000000000000000e+00 0.0000000000000000e+00  1.4818457666615558e-02 0.0000000000000000e+00 0.0000000000000000e+00  1.5054264779193425e-02 0.0000000000000000e+00 0.0000000000000000e+00  1.4811479599408383e-02 0.0000000000000000e+00 0.0000000000000000e+00  1.3932387397059407e-02 0.0000000000000000e+00 0.0000000000000000e+00  1.2227912752681024e-02 0.0000000000000000e+00 0.0000000000000000e+00  9.4748823060879957e-03 0.0000000000000000e+00 0.0000000000000000e+00  5.4142485022814057e-03 0.0000000000000000e+00 0.0000000000000000e+00  -2.4927840965553955e-04 0.0000000000000000e+00 0.0000000000000000e+00  -7.8457503461975744e-03 0.0000000000000000e+00 0.0000000000000000e+00  -1.7736293244930351e-02 0.0000000000000000e+00 0.0000000000000000e+00  -3.0307012544116243e-02 0.0000000000000000e+00 0.0000000000000000e+00  -4.5960518751287517e-02 0.0000000000000000e+00 0.0000000000000000e+00  -6.5105281187623529e-02 0.0000000000000000e+00 0.0000000000000000e+00  -8.8142660404457424e-02 0.0000000000000000e+00 0.0000000000000000e+00  -1.1544875579646058e-01 0.0000000000000000e+00 0.0000000000000000e+00  0.0000000000000000e+00 2.3820261897893405e-06 0.0000000000000000e+00  -2.8350968819682186e-06 -2.8350968847341564e-06 0.0000000000000000e+00  2.6599756781375590e-06 -1.5500144057193577e-05 0.0000000000000000e+00  2.3975400881189714e-05 -3.5730401180507256e-05 0.0000000000000000e+00  6.9138710374413171e-05 -6.3723537128227746e-05 0.0000000000000000e+00  1.4598353934220748e-04 -9.9471081541217839e-05 0.0000000000000000e+00  2.6213053345767166e-04 -1.4285030126874899e-04 0.0000000000000000e+00  4.2495804067453212e-04 -1.9367282744984777e-04 0.0000000000000000e+00  6.4154449721621142e-04 -2.5170004092394484e-04 0.0000000000000000e+00  9.1859058512986324e-04 -3.1664586986488569e-04 0.0000000000000000e+00  1.2623209756489849e-03 -3.8817534550586653e-04 0.0000000000000000e+00  1.6783610755739251e-03 -4.6590171899160183e-04 0.0000000000000000e+00  2.1715815050016283e-03 -5.4938308335930413e-04 0.0000000000000000e+00  2.7459005665462894e-03 -6.3811887713816366e-04 0.0000000000000000e+00  3.4040322064117488e-03 -7.3154648455193776e-04 0.0000000000000000e+00  4.1471637425240558e-03 -8.2903811002333900e-04 0.0000000000000000e+00  4.9745439033647499e-03 -9.2989810730045256e-04 0.0000000000000000e+00  5.8829575334438458e-03 -1.0333609591004400e-03 0.0000000000000000e+00  6.8660588303097025e-03 -1.1385901238258531e-03 0.0000000000000000e+00  7.9135304758899874e-03 -1.2446779869228855e-03 0.0000000000000000e+00  9.0100319922108707e-03 -1.3506471749079379e-03 0.0000000000000000e+00  1.0133897817813663e-02 -1.4554535072751446e-03 0.0000000000000000e+00  1.1255545008585563e-02 -1.5579908740461265e-03 0.0000000000000000e+00  1.2335553529974706e-02 -1.6570983306537076e-03 0.0000000000000000e+00  1.3322390645910601e-02 -1.7515696933440561e-03 0.0000000000000000e+00  1.4149767118966558e-02 -1.8401658889415661e-03 0.0000000000000000e+00  1.4733639245994494e-02 -1.9216302534436004e-03 0.0000000000000000e+00  1.4968909492893933e-02 -1.9947068695125988e-03 0.0000000000000000e+00  1.4725931281701288e-02 -2.0581618682695671e-03 0.0000000000000000e+00  1.3846990273397745e-02 -2.1108073798693536e-03 0.0000000000000000e+00  1.2143012260173629e-02 -2.1515274941186118e-03 0.0000000000000000e+00  9.3908290567421577e-03 -2.1793051993272477e-03 0.0000000000000000e+00  5.3314054276154509e-03 -2.1932488511281325e-03 0.0000000000000000e+00  -3.3052684046845204e-04 -2.1926163720192206e-03 0.0000000000000000e+00  -7.9249899409439759e-03 -2.1768352158448960e-03 0.0000000000000000e+00  -1.7813079912503148e-02 -2.1455161974286980e-03 0.0000000000000000e+00  -3.0380897135038325e-02 -2.0984590887937046e-03 0.0000000000000000e+00  -4.6031150146938080e-02 -2.0356443628723460e-03 0.0000000000000000e+00  -6.5172811861667290e-02 -1.9571854128471590e-03 0.0000000000000000e+00  -8.8209644910770019e-02 -1.8631312348491701e-03 0.0000000000000000e+00  -1.1552978565833251e-01 -1.7527667329768671e-03 0.0000000000000000e+00  0.0000000000000000e+00 1.1535954805274601e-05 0.0000000000000000e+00  -1.5500144058466610e-05 2.6599756779671360e-06 0.0000000000000000e+00  -2.2162641827993370e-05 -2.2162641825494474e-05 0.0000000000000000e+00  -1.2852509226114992e-05 -6.2696626442312084e-05 0.0000000000000000e+00  2.0310593856835771e-05 -1.1886753892633058e-04 0.0000000000000000e+00  8.5136721629954258e-05 -1.9051792288256574e-04 0.0000000000000000e+00  1.8925979632584245e-04 -2.7738884990952340e-04 0.0000000000000000e+00  3.4007816786820220e-04 -3.7911891217047382e-04 0.0000000000000000e+00  5.4469202327215118e-04 -4.9524736153140863e-04 0.0000000000000000e+00  8.0982625904923154e-04 -6.2521498573144896e-04 0.0000000000000000e+00  1.1417336138037214e-03 -7.6836182062136704e-04 0.0000000000000000e+00  1.5460725219663756e-03 -9.2392257520804036e-04 0.0000000000000000e+00  2.0277523366039624e-03 -1.0910207422024142e-03 0.0000000000000000e+00  2.5907362393547584e-03 -1.2686621249759810e-03 0.0000000000000000e+00  3.2377893848989812e-03 -1.4557283206925212e-03 0.0000000000000000e+00  3.9701565738234955e-03 -1.6509706023131200e-03 0.0000000000000000e+00  4.7871499953339360e-03 -1.8530046111994622e-03 0.0000000000000000e+00  5.6856233815601063e-03 -2.0603062774023633e-03 0.0000000000000000e+00  6.6593044195736167e-03 -2.2712094076462763e-03 0.0000000000000000e+00  7.6979527657507407e-03 -2.4839054107561611e-03 0.0000000000000000e+00  8.7863069804362207e-03 -2.6964456595042975e-03 0.0000000000000000e+00  9.9027808781018672e-03 -2.9067470118316961e-03 0.0000000000000000e+00  1.1017869212414001e-02 -3.1126010280002774e-03 0.0000000000000000e+00  1.2092225701770385e-02 -3.3116874185210275e-03 0.0000000000000000e+00  1.3074384968006027e-02 -3.5015922339314337e-03 0.0000000000000000e+00  1.3898116203611758e-02 -3.6798312523410853e-03 0.0000000000000000e+00  1.4479422726830117e-02 -3.8438789229382018e-03 0.0000000000000000e+00  1.4713240352413982e-02 -3.9912030663626545e-03 0.0000000000000000e+00  1.4469940307241578e-02 -4.1193052984744702e-03 0.0000000000000000e+00  1.3591809190592021e-02 -4.2257668116946557e-03 0.0000000000000000e+00  1.1889756177698102e-02 -4.3082987041674122e-03 0.0000000000000000e+00  9.1405787968953985e-03 -4.3647954909240960e-03 0.0000000000000000e+00  5.0851900155779095e-03 -4.3933897872178752e-03 0.0000000000000000e+00  -5.7174793760220795e-04 -4.3925054680724199e-03 0.0000000000000000e+00  -8.1603465245426894e-03 -4.3609059046645065e-03 0.0000000000000000e+00  -1.8041816752649837e-02 -4.2977330243044115e-03 0.0000000000000000e+00  -3.0602413893322168e-02 -4.2025314222494956e-03 0.0000000000000000e+00  -4.6245070432052234e-02 -4.0752489870132594e-03 0.0000000000000000e+00  -6.5379098101165697e-02 -3.9162056865881542e-03 0.0000000000000000e+00  -8.8408669653273764e-02 -3.7260626878229401e-03 0.0000000000000000e+00  -1.1572102121712255e-01 -3.5061182064062895e-03 0.0000000000000000e+00  0.0000000000000000e+00 3.6703187247922446e-05 0.0000000000000000e+00  -3.5730401180949780e-05 2.3975400880697622e-05 0.0000000000000000e+00  -6.2696626441948551e-05 -1.2852509226974639e-05 0.0000000000000000e+00  -7.3510815584445282e-05 -7.3510815584295093e-05 0.0000000000000000e+00  -6.0413998736117604e-05 -1.5776537868822840e-04 0.0000000000000000e+00  -1.5630762906717124e-05 -2.6530717557981436e-04 0.0000000000000000e+00  6.8470031609965147e-05 -3.9570875860011159e-04 0.0000000000000000e+00  1.9930094314914078e-04 -5.4841494772318942e-04 0.0000000000000000e+00  3.8398765980462247e-04 -7.2273684173970677e-04 0.0000000000000000e+00  6.2928987899975558e-04 -9.1784513242528930e-04 0.0000000000000000e+00  9.4150419716484773e-04 -1.1327623892103977e-03 0.0000000000000000e+00  1.3263423850620895e-03 -1.3663543223844585e-03 0.0000000000000000e+00  1.7887771671542907e-03 -1.6173202458328677e-03 0.0000000000000000e+00  2.3328455770589324e-03 -1.8841831234397653e-03 0.0000000000000000e+00  2.9613973173646326e-03 -2.1652796742807436e-03 0.0000000000000000e+00  3.6757723499592043e-03 -2.4587510622438337e-03 0.0000000000000000e+00  4.4753882095678642e-03 -2.7625347344329490e-03 0.0000000000000000e+00  5.3572133399272647e-03 -3.0743580124256427e-03 0.0000000000000000e+00  6.3150982598356503e-03 -3.3917340839444737e-03 0.0000000000000000e+00  7.3389318701498549e-03 -3.7119610867938167e-03 0.0000000000000000e+00  8.4135861948439767e-03 -4.0321250173285927e-03 0.0000000000000000e+00  9.5176100404023387e-03 -4.3491072277278379e-03 0.0000000000000000e+00  1.0621631501556414e-02 -4.6595972940558679e-03 0.0000000000000000e+00  1.1686432353273761e-02 -4.9601120352521250e-03 0.0000000000000000e+00  1.2660665967335604e-02 -5.2470214345924108e-03 0.0000000000000000e+00  1.3478206670514761e-02 -5.5165821515677331e-03 0.0000000000000000e+00  1.4055144843061255e-02 -5.7649792017959427e-03 0.0000000000000000e+00  1.4286480858959368e-02 -5.9883762090257257e-03 0.0000000000000000e+00  1.4042623795028783e-02 -6.1829743757023806e-03 0.0000000000000000e+00  1.3165867610700989e-02 -6.3450799486082891e-03 0.0000000000000000e+00  1.1467095173662026e-02 -6.4711794438170531e-03 0.0000000000000000e+00  8.7230415761363408e-03 -6.5580212137072045e-03 0.0000000000000000e+00  4.6745194968489598e-03 -6.6027010739643467e-03 0.0000000000000000e+00  -9.7394804222512008e-04 -6.6027486703584357e-03 0.0000000000000000e+00  -8.5526511240650912e-03 -6.5562100944775437e-03 0.0000000000000000e+00  -1.8423018502228029e-02 -6.4617210753044954e-03 0.0000000000000000e+00  -3.0971559886621123e-02 -6.3185643721717071e-03 0.0000000000000000e+00  -4.6601490094563276e-02 -6.1267067960659978e-03 0.0000000000000000e+00  -6.5722406214675219e-02 -5.8868221166589428e-03 0.0000000000000000e+00  -8.8738711900036280e-02 -5.6003392643516996e-03 0.0000000000000000e+00  -1.1603780018364934e-01 -5.2696022666323733e-03 0.0000000000000000e+00  0.0000000000000000e+00 8.5832792306840119e-05 0.0000000000000000e+00  -6.3723537129916892e-05 6.9138710373788386e-05 0.0000000000000000e+00  -1.1886753892750497e-04 2.0310593857443869e-05 0.0000000000000000e+00  -1.5776537869289633e-04 -6.0413998732559950e-05 0.0000000000000000e+00  -1.7269653586382590e-04 -1.7269653586071993e-04 0.0000000000000000e+00  -1.5591063662600499e-04 -3.1609641956687016e-04 0.0000000000000000e+00  -9.9776434681529867e-05 -4.9002974229189495e-04 0.0000000000000000e+00  3.1355952404996353e-06 -6.9375353502147729e-04 0.0000000000000000e+00  1.5998188000295916e-04 -9.2635500481229392e-04 0.0000000000000000e+00  3.7756610910930782e-04 -1.1867406009657404e-03 0.0000000000000000e+00  6.6224241425529256e-04 -1.4736239316796614e-03 0.0000000000000000e+00  1.0197942039042404e-03 -1.7855126407613805e-03 0.0000000000000000e+00  1.4552805338604988e-03 -2.1206945911258200e-03 0.0000000000000000e+00  1.9728399278413707e-03 -2.4772237840784707e-03 0.0000000000000000e+00  2.5754389549198860e-03 -2.8529065201569059e-03 0.0000000000000000e+00  3.2645496917396133e-03 -3.2452883900336293e-03 0.0000000000000000e+00  4.0397364788675094e-03 -3.6516427675269670e-03 0.0000000000000000e+00  4.8981281976365034e-03 -4.0689615570406136e-03 0.0000000000000000e+00  5.8337478101326322e-03 -4.4939490240861737e-03 0.0000000000000000e+00  6.8366664181104056e-03 -4.9230196078334475e-03 0.0000000000000000e+00  7.8919450911243607e-03 -5.3523006757199738e-03 0.0000000000000000e+00  8.9783249222285342e-03 -5.7776412292574065e-03 0.0000000000000000e+00  1.0066625235964046e-02 -6.1946276014438377e-03 0.0000000000000000e+00  1.1117813013833432e-02 -6.5986071960056443e-03 0.0000000000000000e+00  1.2080715235821307e-02 -6.9847212997062504e-03 0.0000000000000000e+00  1.2889362155136523e-02 -7.3479479440788842e-03 0.0000000000000000e+00  1.3459975948389576e-02 -7.6831556897909315e-03 0.0000000000000000e+00  1.3687658029977508e-02 -7.9851690377800016e-03 0.0000000000000000e+00  1.3442881185349620e-02 -8.2488459083404596e-03 0.0000000000000000e+00  1.2567959484631314e-02 -8.4691672328857086e-03 0.0000000000000000e+00  1.0873746632408582e-02 -8.6413381216727553e-03 0.0000000000000000e+00  8.1368944911035281e-03 -8.7608992473034112e-03 0.0000000000000000e+00  4.0980748425823704e-03 -8.8238459741307937e-03 0.0000000000000000e+00  -1.5383898933713667e-03 -8.8267513679434299e-03 0.0000000000000000e+00  -9.1030500490105783e-03 -8.7668876408489773e-03 0.0000000000000000e+00  -1.8957651267198568e-02 -8.6423391323668282e-03 0.0000000000000000e+00  -3.1489069673495448e-02 -8.4520992909271255e-03 0.0000000000000000e+00  -4.7100924244844779e-02 -8.1961454420908086e-03 0.0000000000000000e+00  -6.6203240434666008e-02 -7.8754886216271421e-03 0.0000000000000000e+00  -8.9200868104896622e-02 -7.4921926085794541e-03 0.0000000000000000e+00  -1.1648166901976535e-01 -7.0493005003813879e-03 0.0000000000000000e+00  0.0000000000000000e+00 1.6668217204117493e-04 0.0000000000000000e+00  -9.9471081542378478e-05 1.4598353934277476e-04 0.0000000000000000e+00  -1.9051792288446063e-04 8.5136721630616095e-05 0.0000000000000000e+00  -2.6530717558315132e-04 -1.5630762904181243e-05 0.0000000000000000e+00  -3.1609641956602497e-04 -1.5591063662742606e-04 0.0000000000000000e+00  -3.3514777853061741e-04 -3.3514777853143820e-04 0.0000000000000000e+00  -3.1482627616853610e-04 -5.5261507219097261e-04 0.0000000000000000e+00  -2.4768160312097089e-04 -8.0739444223230450e-04 0.0000000000000000e+00  -1.2652048361559478e-04 -1.0983620660366654e-03 0.0000000000000000e+00  5.5513928436570987e-05 -1.4241735695325042e-03 0.0000000000000000e+00  3.0484612576294276e-04 -1.7832480197271698e-03 0.0000000000000000e+00  6.2734813013764123e-04 -2.1737506870592397e-03 0.0000000000000000e+00  1.0281868081941483e-03 -2.5935749377195647e-03 0.0000000000000000e+00  1.5116283954230022e-03 -3.0403237727361248e-03 0.0000000000000000e+00  2.0807874321968848e-03 -3.5112916294720666e-03 0.0000000000000000e+00  2.7373041456311359e-03 -4.0034471538233198e-03 0.0000000000000000e+00  3.4809305950737712e-03 -4.5134177491362578e-03 0.0000000000000000e+00  4.3090017183378508e-03 -5.0374768092307891e-03 0.0000000000000000e+00  5.2157629367010228e-03 -5.5715346438329092e-03 0.0000000000000000e+00  6.1915214979573110e-03 -6.1111342011048444e-03 0.0000000000000000e+00  7.2215847436457557e-03 -6.6514527790014670e-03 0.0000000000000000e+00  8.2849457125141711e-03 -7.1873109911930353e-03 0.0000000000000000e+00  9.3526759825006828e-03 -7.7131903090962321e-03 0.0000000000000000e+00  1.0385988824528255e-02 -8.2232605354593691e-03 0.0000000000000000e+00  1.1333944412213701e-02 -8.7114185701866083e-03 0.0000000000000000e+00  1.2130785194327046e-02 -9.1713397982542619e-03 0.0000000000000000e+00  1.2692916012349625e-02 -9.5965433491713957e-03 0.0000000000000000e+00  1.2915582448058177e-02 -9.9804723252860418e-03 0.0000000000000000e+00  1.2669353812519381e-02 -1.0316589835800404e-02 0.0000000000000000e+00  1.1796584059669353e-02 -1.0598491249399586e-02 0.0000000000000000e+00  1.0108101670546963e-02 -1.0820032415815506e-02 0.0000000000000000e+00  7.3804607100899922e-03 -1.0975472618102087e-02 0.0000000000000000e+00  3.3541566700947285e-03 -1.1059629629685109e-02 0.0000000000000000e+00  -2.2667465335226102e-03 -1.1068042449086902e-02 0.0000000000000000e+00  -9.8131407170880779e-03 -1.0997135180772069e-02 0.0000000000000000e+00  -1.9647193000544200e-02 -1.0844373414198753e-02 0.0000000000000000e+00  -3.2156273669390237e-02 -1.0608402731693105e-02 0.0000000000000000e+00  -4.7744556964308522e-02 -1.0289157675620882e-02 0.0000000000000000e+00  -6.6822668217509137e-02 -9.8879266281278761e-03 0.0000000000000000e+00  -8.9796067591661310e-02 -9.4073462923223005e-03 0.0000000000000000e+00  -1.1705311408570460e-01 -8.8512660009113370e-03 0.0000000000000000e+00  0.0000000000000000e+00 2.8684145270932096e-04 0.0000000000000000e+00  -1.4285030126793820e-04 2.6213053345882693e-04 0.0000000000000000e+00  -2.7738884991115387e-04 1.8925979632746566e-04 0.0000000000000000e+00  -3.9570875860123900e-04 6.8470031612043549e-05 0.0000000000000000e+00  -4.9002974229219798e-04 -9.9776434681635658e-05 0.0000000000000000e+00  -5.5261507219086636e-04 -3.1482627616871483e-04 0.0000000000000000e+00  -5.7582334580180271e-04 -5.7582334580375547e-04 0.0000000000000000e+00  -5.5218116702219838e-04 -8.8168940070395001e-04 0.0000000000000000e+00  -4.7445392187889289e-04 -1.2311060138681738e-03 0.0000000000000000e+00  -3.3572400349359043e-04 -1.6224959787083343e-03 0.0000000000000000e+00  -1.2948529932351564e-04 -2.0540033024289040e-03 0.0000000000000000e+00  1.5023818288954042e-04 -2.5234717340382675e-03 0.0000000000000000e+00  5.0874096790089337e-04 -3.0284221850673952e-03 0.0000000000000000e+00  9.5044166903993392e-04 -3.5660296082635607e-03 0.0000000000000000e+00  1.4786325333065724e-03 -4.1331000370630226e-03 0.0000000000000000e+00  2.0951569024770765e-03 -4.7260486094497667e-03 0.0000000000000000e+00  2.7999948027809056e-03 -5.3408795205800129e-03 0.0000000000000000e+00  3.5907326949222132e-03 -5.9731689727392425e-03 0.0000000000000000e+00  4.4618889383399949e-03 -6.6180523171880746e-03 0.0000000000000000e+00  5.4040620501747648e-03 -7.2702167061603111e-03 0.0000000000000000e+00  6.4028648563864256e-03 -7.9239006907153853e-03 0.0000000000000000e+00  7.4376048746894905e-03 -8.5729023061167434e-03 0.0000000000000000e+00  8.4796707820989584e-03 -9.2105972769366187e-03 0.0000000000000000e+00  9.4905880216186889e-03 -9.8299690441201425e-03 0.0000000000000000e+00  1.0419715312161607e-02 -1.0423652359899392e-02 0.0000000000000000e+00  1.1201570236555668e-02 -1.0983992204359586e-02 0.0000000000000000e+00  1.1752798616364503e-02 -1.1503119733923924e-02 0.0000000000000000e+00  1.1968841355482042e-02 -1.1973046848615556e-02 0.0000000000000000e+00  1.1720405446036326e-02 -1.2385780714285786e-02 0.0000000000000000e+00  1.0849912803709377e-02 -1.2733459125023881e-02 0.0000000000000000e+00  9.1681784821230766e-03 -1.3008506838318295e-02 0.0000000000000000e+00  6.4516511057675025e-03 -1.3203811841412573e-02 0.0000000000000000e+00  2.4406199127219612e-03 -1.3312918801849979e-02 0.0000000000000000e+00  -3.1611643186475742e-03 -1.3330234672338490e-02 0.