<?xml version="1.0"?>
<VTKFile type="UnstructuredGrid"  version="0.1"  >
<UnstructuredGrid>
<Piece  NumberOfPoints="1681" NumberOfCells="3200">
<Points>
<DataArray  type="Float64"  NumberOfComponents="3"  format="ascii">0 0 0  0.5 0 0  1 0 0  1.5 0 0  2 0 0  2.5 0 0  3 0 0  3.5 0 0  4 0 0  4.5 0 0  5 0 0  5.5 0 0  6 0 0  6.5 0 0  7 0 0  7.5 0 0  8 0 0  8.5 0 0  9 0 0  9.5 0 0  10 0 0  10.5 0 0  11 0 0  11.5 0 0  12 0 0  12.5 0 0  13 0 0  13.5 0 0  14 0 0  14.5 0 0  15 0 0  15.5 0 0  16 0 0  16.5 0 0  17 0 0  17.5 0 0  18 0 0  18.5 0 0  19 0 0  19.5 0 0  20 0 0  0 0.5 0  0.5 0.5 0  1 0.5 0  1.5 0.5 0  2 0.5 0  2.5 0.5 0  3 0.5 0  3.5 0.5 0  4 0.5 0  4.5 0.5 0  5 0.5 0  5.5 0.5 0  6 0.5 0  6.5 0.5 0  7 0.5 0  7.5 0.5 0  8 0.5 0  8.5 0.5 0  9 0.5 0  9.5 0.5 0  10 0.5 0  10.5 0.5 0  11 0.5 0  11.5 0.5 0  12 0.5 0  12.5 0.5 0  13 0.5 0  13.5 0.5 0  14 0.5 0  14.5 0.5 0  15 0.5 0  15.5 0.5 0  16 0.5 0  16.5 0.5 0  17 0.5 0  17.5 0.5 0  18 0.5 0  18.5 0.5 0  19 0.5 0  19.5 0.5 0  20 0.5 0  0 1 0  0.5 1 0  1 1 0  1.5 1 0  2 1 0  2.5 1 0  3 1 0  3.5 1 0  4 1 0  4.5 1 0  5 1 0  5.5 1 0  6 1 0  6.5 1 0  7 1 0  7.5 1 0  8 1 0  8.5 1 0  9 1 0  9.5 1 0  10 1 0  10.5 1 0  11 1 0  11.5 1 0  12 1 0  12.5 1 0  13 1 0  13.5 1 0  14 1 0  14.5 1 0  15 1 0  15.5 1 0  16 1 0  16.5 1 0  17 1 0  17.5 1 0  18 1 0  18.5 1 0  19 1 0  19.5 1 0  20 1 0  0 1.5 0  0.5 1.5 0  1 1.5 0  1.5 1.5 0  2 1.5 0  2.5 1.5 0  3 1.5 0  3.5 1.5 0  4 1.5 0  4.5 1.5 0  5 1.5 0  5.5 1.5 0  6 1.5 0  6.5 1.5 0  7 1.5 0  7.5 1.5 0  8 1.5 0  8.5 1.5 0  9 1.5 0  9.5 1.5 0  10 1.5 0  10.5 1.5 0  11 1.5 0  11.5 1.5 0  12 1.5 0  12.5 1.5 0  13 1.5 0  13.5 1.5 0  14 1.5 0  14.5 1.5 0  15 1.5 0  15.5 1.5 0  16 1.5 0  16.5 1.5 0  17 1.5 0  17.5 1.5 0  18 1.5 0  18.5 1.5 0  19 1.5 0  19.5 1.5 0  20 1.5 0  0 2 0  0.5 2 0  1 2 0  1.5 2 0  2 2 0  2.5 2 0  3 2 0  3.5 2 0  4 2 0  4.5 2 0  5 2 0  5.5 2 0  6 2 0  6.5 2 0  7 2 0  7.5 2 0  8 2 0  8.5 2 0  9 2 0  9.5 2 0  10 2 0  10.5 2 0  11 2 0  11.5 2 0  12 2 0  12.5 2 0  13 2 0  13.5 2 0  14 2 0  14.5 2 0  15 2 0  15.5 2 0  16 2 0  16.5 2 0  17 2 0  17.5 2 0  18 2 0  18.5 2 0  19 2 0  19.5 2 0  20 2 0  0 2.5 0  0.5 2.5 0  1 2.5 0  1.5 2.5 0  2 2.5 0  2.5 2.5 0  3 2.5 0  3.5 2.5 0  4 2.5 0  4.5 2.5 0  5 2.5 0  5.5 2.5 0  6 2.5 0  6.5 2.5 0  7 2.5 0  7.5 2.5 0  8 2.5 0  8.5 2.5 0  9 2.5 0  9.5 2.5 0  10 2.5 0  10.5 2.5 0  11 2.5 0  11.5 2.5 0  12 2.5 0  12.5 2.5 0  13 2.5 0  13.5 2.5 0  14 2.5 0  14.5 2.5 0  15 2.5 0  15.5 2.5 0  16 2.5 0  16.5 2.5 0  17 2.5 0  17.5 2.5 0  18 2.5 0  18.5 2.5 0  19 2.5 0  19.5 2.5 0  20 2.5 0  0 3 0  0.5 3 0  1 3 0  1.5 3 0  2 3 0  2.5 3 0  3 3 0  3.5 3 0  4 3 0  4.5 3 0  5 3 0  5.5 3 0  6 3 0  6.5 3 0  7 3 0  7.5 3 0  8 3 0  8.5 3 0  9 3 0  9.5 3 0  10 3 0  10.5 3 0  11 3 0  11.5 3 0  12 3 0  12.5 3 0  13 3 0  13.5 3 0  14 3 0  14.5 3 0  15 3 0  15.5 3 0  16 3 0  16.5 3 0  17 3 0  17.5 3 0  18 3 0  18.5 3 0  19 3 0  19.5 3 0  20 3 0  0 3.5 0  0.5 3.5 0  1 3.5 0  1.5 3.5 0  2 3.5 0  2.5 3.5 0  3 3.5 0  3.5 3.5 0  4 3.5 0  4.5 3.5 0  5 3.5 0  5.5 3.5 0  6 3.5 0  6.5 3.5 0  7 3.5 0  7.5 3.5 0  8 3.5 0  8.5 3.5 0  9 3.5 0  9.5 3.5 0  10 3.5 0  10.5 3.5 0  11 3.5 0  11.5 3.5 0  12 3.5 0  12.5 3.5 0  13 3.5 0  13.5 3.5 0  14 3.5 0  14.5 3.5 0  15 3.5 0  15.5 3.5 0  16 3.5 0  16.5 3.5 0  17 3.5 0  17.5 3.5 0  18 3.5 0  18.5 3.5 0  19 3.5 0  19.5 3.5 0  20 3.5 0  0 4 0  0.5 4 0  1 4 0  1.5 4 0  2 4 0  2.5 4 0  3 4 0  3.5 4 0  4 4 0  4.5 4 0  5 4 0  5.5 4 0  6 4 0  6.5 4 0  7 4 0  7.5 4 0  8 4 0  8.5 4 0  9 4 0  9.5 4 0  10 4 0  10.5 4 0  11 4 0  11.5 4 0  12 4 0  12.5 4 0  13 4 0  13.5 4 0  14 4 0  14.5 4 0  15 4 0  15.5 4 0  16 4 0  16.5 4 0  17 4 0  17.5 4 0  18 4 0  18.5 4 0  19 4 0  19.5 4 0  20 4 0  0 4.5 0  0.5 4.5 0  1 4.5 0  1.5 4.5 0  2 4.5 0  2.5 4.5 0  3 4.5 0  3.5 4.5 0  4 4.5 0  4.5 4.5 0  5 4.5 0  5.5 4.5 0  6 4.5 0  6.5 4.5 0  7 4.5 0  7.5 4.5 0  8 4.5 0  8.5 4.5 0  9 4.5 0  9.5 4.5 0  10 4.5 0  10.5 4.5 0  11 4.5 0  11.5 4.5 0  12 4.5 0  12.5 4.5 0  13 4.5 0  13.5 4.5 0  14 4.5 0  14.5 4.5 0  15 4.5 0  15.5 4.5 0  16 4.5 0  16.5 4.5 0  17 4.5 0  17.5 4.5 0  18 4.5 0  18.5 4.5 0  19 4.5 0  19.5 4.5 0  20 4.5 0  0 5 0  0.5 5 0  1 5 0  1.5 5 0  2 5 0  2.5 5 0  3 5 0  3.5 5 0  4 5 0  4.5 5 0  5 5 0  5.5 5 0  6 5 0  6.5 5 0  7 5 0  7.5 5 0  8 5 0  8.5 5 0  9 5 0  9.5 5 0  10 5 0  10.5 5 0  11 5 0  11.5 5 0  12 5 0  12.5 5 0  13 5 0  13.5 5 0  14 5 0  14.5 5 0  15 5 0  15.5 5 0  16 5 0  16.5 5 0  17 5 0  17.5 5 0  18 5 0  18.5 5 0  19 5 0  19.5 5 0  20 5 0  0 5.5 0  0.5 5.5 0  1 5.5 0  1.5 5.5 0  2 5.5 0  2.5 5.5 0  3 5.5 0  3.5 5.5 0  4 5.5 0  4.5 5.5 0  5 5.5 0  5.5 5.5 0  6 5.5 0  6.5 5.5 0  7 5.5 0  7.5 5.5 0  8 5.5 0  8.5 5.5 0  9 5.5 0  9.5 5.5 0  10 5.5 0  10.5 5.5 0  11 5.5 0  11.5 5.5 0  12 5.5 0  12.5 5.5 0  13 5.5 0  13.5 5.5 0  14 5.5 0  14.5 5.5 0  15 5.5 0  15.5 5.5 0  16 5.5 0  16.5 5.5 0  17 5.5 0  17.5 5.5 0  18 5.5 0  18.5 5.5 0  19 5.5 0  19.5 5.5 0  20 5.5 0  0 6 0  0.5 6 0  1 6 0  1.5 6 0  2 6 0  2.5 6 0  3 6 0  3.5 6 0  4 6 0  4.5 6 0  5 6 0  5.5 6 0  6 6 0  6.5 6 0  7 6 0  7.5 6 0  8 6 0  8.5 6 0  9 6 0  9.5 6 0  10 6 0  10.5 6 0  11 6 0  11.5 6 0  12 6 0  12.5 6 0  13 6 0  13.5 6 0  14 6 0  14.5 6 0  15 6 0  15.5 6 0  16 6 0  16.5 6 0  17 6 0  17.5 6 0  18 6 0  18.5 6 0  19 6 0  19.5 6 0  20 6 0  0 6.5 0  0.5 6.5 0  1 6.5 0  1.5 6.5 0  2 6.5 0  2.5 6.5 0  3 6.5 0  3.5 6.5 0  4 6.5 0  4.5 6.5 0  5 6.5 0  5.5 6.5 0  6 6.5 0  6.5 6.5 0  7 6.5 0  7.5 6.5 0  8 6.5 0  8.5 6.5 0  9 6.5 0  9.5 6.5 0  10 6.5 0  10.5 6.5 0  11 6.5 0  11.5 6.5 0  12 6.5 0  12.5 6.5 0  13 6.5 0  13.5 6.5 0  14 6.5 0  14.5 6.5 0  15 6.5 0  15.5 6.5 0  16 6.5 0  16.5 6.5 0  17 6.5 0  17.5 6.5 0  18 6.5 0  18.5 6.5 0  19 6.5 0  19.5 6.5 0  20 6.5 0  0 7 0  0.5 7 0  1 7 0  1.5 7 0  2 7 0  2.5 7 0  3 7 0  3.5 7 0  4 7 0  4.5 7 0  5 7 0  5.5 7 0  6 7 0  6.5 7 0  7 7 0  7.5 7 0  8 7 0  8.5 7 0  9 7 0  9.5 7 0  10 7 0  10.5 7 0  11 7 0  11.5 7 0  12 7 0  12.5 7 0  13 7 0  13.5 7 0  14 7 0  14.5 7 0  15 7 0  15.5 7 0  16 7 0  16.5 7 0  17 7 0  17.5 7 0  18 7 0  18.5 7 0  19 7 0  19.5 7 0  20 7 0  0 7.5 0  0.5 7.5 0  1 7.5 0  1.5 7.5 0  2 7.5 0  2.5 7.5 0  3 7.5 0  3.5 7.5 0  4 7.5 0  4.5 7.5 0  5 7.5 0  5.5 7.5 0  6 7.5 0  6.5 7.5 0  7 7.5 0  7.5 7.5 0  8 7.5 0  8.5 7.5 0  9 7.5 0  9.5 7.5 0  10 7.5 0  10.5 7.5 0  11 7.5 0  11.5 7.5 0  12 7.5 0  12.5 7.5 0  13 7.5 0  13.5 7.5 0  14 7.5 0  14.5 7.5 0  15 7.5 0  15.5 7.5 0  16 7.5 0  16.5 7.5 0  17 7.5 0  17.5 7.5 0  18 7.5 0  18.5 7.5 0  19 7.5 0  19.5 7.5 0  20 7.5 0  0 8 0  0.5 8 0  1 8 0  1.5 8 0  2 8 0  2.5 8 0  3 8 0  3.5 8 0  4 8 0  4.5 8 0  5 8 0  5.5 8 0  6 8 0  6.5 8 0  7 8 0  7.5 8 0  8 8 0  8.5 8 0  9 8 0  9.5 8 0  10 8 0  10.5 8 0  11 8 0  11.5 8 0  12 8 0  12.5 8 0  13 8 0  13.5 8 0  14 8 0  14.5 8 0  15 8 0  15.5 8 0  16 8 0  16.5 8 0  17 8 0  17.5 8 0  18 8 0  18.5 8 0  19 8 0  19.5 8 0  20 8 0  0 8.5 0  0.5 8.5 0  1 8.5 0  1.5 8.5 0  2 8.5 0  2.5 8.5 0  3 8.5 0  3.5 8.5 0  4 8.5 0  4.5 8.5 0  5 8.5 0  5.5 8.5 0  6 8.5 0  6.5 8.5 0  7 8.5 0  7.5 8.5 0  8 8.5 0  8.5 8.5 0  9 8.5 0  9.5 8.5 0  10 8.5 0  10.5 8.5 0  11 8.5 0  11.5 8.5 0  12 8.5 0  12.5 8.5 0  13 8.5 0  13.5 8.5 0  14 8.5 0  14.5 8.5 0  15 8.5 0  15.5 8.5 0  16 8.5 0  16.5 8.5 0  17 8.5 0  17.5 8.5 0  18 8.5 0  18.5 8.5 0  19 8.5 0  19.5 8.5 0  20 8.5 0  0 9 0  0.5 9 0  1 9 0  1.5 9 0  2 9 0  2.5 9 0  3 9 0  3.5 9 0  4 9 0  4.5 9 0  5 9 0  5.5 9 0  6 9 0  6.5 9 0  7 9 0  7.5 9 0  8 9 0  8.5 9 0  9 9 0  9.5 9 0  10 9 0  10.5 9 0  11 9 0  11.5 9 0  12 9 0  12.5 9 0  13 9 0  13.5 9 0  14 9 0  14.5 9 0  15 9 0  15.5 9 0  16 9 0  16.5 9 0  17 9 0  17.5 9 0  18 9 0  18.5 9 0  19 9 0  19.5 9 0  20 9 0  0 9.5 0  0.5 9.5 0  1 9.5 0  1.5 9.5 0  2 9.5 0  2.5 9.5 0  3 9.5 0  3.5 9.5 0  4 9.5 0  4.5 9.5 0  5 9.5 0  5.5 9.5 0  6 9.5 0  6.5 9.5 0  7 9.5 0  7.5 9.5 0  8 9.5 0  8.5 9.5 0  9 9.5 0  9.5 9.5 0  10 9.5 0  10.5 9.5 0  11 9.5 0  11.5 9.5 0  12 9.5 0  12.5 9.5 0  13 9.5 0  13.5 9.5 0  14 9.5 0  14.5 9.5 0  15 9.5 0  15.5 9.5 0  16 9.5 0  16.5 9.5 0  17 9.5 0  17.5 9.5 0  18 9.5 0  18.5 9.5 0  19 9.5 0  19.5 9.5 0  20 9.5 0  0 10 0  0.5 10 0  1 10 0  1.5 10 0  2 10 0  2.5 10 0  3 10 0  3.5 10 0  4 10 0  4.5 10 0  5 10 0  5.5 10 0  6 10 0  6.5 10 0  7 10 0  7.5 10 0  8 10 0  8.5 10 0  9 10 0  9.5 10 0  10 10 0  10.5 10 0  11 10 0  11.5 10 0  12 10 0  12.5 10 0  13 10 0  13.5 10 0  14 10 0  14.5 10 0  15 10 0  15.5 10 0  16 10 0  16.5 10 0  17 10 0  17.5 10 0  18 10 0  18.5 10 0  19 10 0  19.5 10 0  20 10 0  0 10.5 0  0.5 10.5 0  1 10.5 0  1.5 10.5 0  2 10.5 0  2.5 10.5 0  3 10.5 0  3.5 10.5 0  4 10.5 0  4.5 10.5 0  5 10.5 0  5.5 10.5 0  6 10.5 0  6.5 10.5 0  7 10.5 0  7.5 10.5 0  8 10.5 0  8.5 10.5 0  9 10.5 0  9.5 10.5 0  10 10.5 0  10.5 10.5 0  11 10.5 0  11.5 10.5 0  12 10.5 0  12.5 10.5 0  13 10.5 0  13.5 10.5 0  14 10.5 0  14.5 10.5 0  15 10.5 0  15.5 10.5 0  16 10.5 0  16.5 10.5 0  17 10.5 0  17.5 10.5 0  18 10.5 0  18.5 10.5 0  19 10.5 0  19.5 10.5 0  20 10.5 0  0 11 0  0.5 11 0  1 11 0  1.5 11 0  2 11 0  2.5 11 0  3 11 0  3.5 11 0  4 11 0  4.5 11 0  5 11 0  5.5 11 0  6 11 0  6.5 11 0  7 11 0  7.5 11 0  8 11 0  8.5 11 0  9 11 0  9.5 11 0  10 11 0  10.5 11 0  11 11 0  11.5 11 0  12 11 0  12.5 11 0  13 11 0  13.5 11 0  14 11 0  14.5 11 0  15 11 0  15.5 11 0  16 11 0  16.5 11 0  17 11 0  17.5 11 0  18 11 0  18.5 11 0  19 11 0  19.5 11 0  20 11 0  0 11.5 0  0.5 11.5 0  1 11.5 0  1.5 11.5 0  2 11.5 0  2.5 11.5 0  3 11.5 0  3.5 11.5 0  4 11.5 0  4.5 11.5 0  5 11.5 0  5.5 11.5 0  6 11.5 0  6.5 11.5 0  7 11.5 0  7.5 11.5 0  8 11.5 0  8.5 11.5 0  9 11.5 0  9.5 11.5 0  10 11.5 0  10.5 11.5 0  11 11.5 0  11.5 11.5 0  12 11.5 0  12.5 11.5 0  13 11.5 0  13.5 11.5 0  14 11.5 0  14.5 11.5 0  15 11.5 0  15.5 11.5 0  16 11.5 0  16.5 11.5 0  17 11.5 0  17.5 11.5 0  18 11.5 0  18.5 11.5 0  19 11.5 0  19.5 11.5 0  20 11.5 0  0 12 0  0.5 12 0  1 12 0  1.5 12 0  2 12 0  2.5 12 0  3 12 0  3.5 12 0  4 12 0  4.5 12 0  5 12 0  5.5 12 0  6 12 0  6.5 12 0  7 12 0  7.5 12 0  8 12 0  8.5 12 0  9 12 0  9.5 12 0  10 12 0  10.5 12 0  11 12 0  11.5 12 0  12 12 0  12.5 12 0  13 12 0  13.5 12 0  14 12 0  14.5 12 0  
[...]
<PointData  Vectors="f_5623-0"> 
<DataArray  type="Float64"  Name="f_5623-0"  NumberOfComponents="3" format="ascii">0.0000000000000000e+00 0.0000000000000000e+00 0.0000000000000000e+00  2.5378772594521818e-06 0.0000000000000000e+00 0.0000000000000000e+00  1.3265569948198936e-05 0.0000000000000000e+00 0.0000000000000000e+00  4.3468011262565517e-05 0.0000000000000000e+00 0.0000000000000000e+00  1.0280120804470951e-04 0.0000000000000000e+00 0.0000000000000000e+00  2.0065614521057074e-04 0.0000000000000000e+00 0.0000000000000000e+00  3.4617969128950807e-04 0.0000000000000000e+00 0.0000000000000000e+00  5.4818851272119841e-04 0.0000000000000000e+00 0.0000000000000000e+00  8.1506417701688466e-04 0.0000000000000000e+00 0.0000000000000000e+00  1.1546278688474390e-03 0.0000000000000000e+00 0.0000000000000000e+00  1.5739870627656772e-03 0.0000000000000000e+00 0.0000000000000000e+00  2.0793453327823822e-03 0.0000000000000000e+00 0.0000000000000000e+00  2.6757648091660898e-03 0.0000000000000000e+00 0.0000000000000000e+00  3.3668685753777436e-03 0.0000000000000000e+00 0.0000000000000000e+00  4.1544676753839617e-03 0.0000000000000000e+00 0.0000000000000000e+00  5.0380944713824894e-03 0.0000000000000000e+00 0.0000000000000000e+00  6.0144209769401177e-03 0.0000000000000000e+00 0.0000000000000000e+00  7.0765376876347572e-03 0.0000000000000000e+00 0.0000000000000000e+00  8.2130656481498934e-03 0.0000000000000000e+00 0.0000000000000000e+00  9.4070724868918053e-03 0.0000000000000000e+00 0.0000000000000000e+00  1.0634762558910188e-02 0.0000000000000000e+00 0.0000000000000000e+00  1.1863913030323517e-02 0.0000000000000000e+00 0.0000000000000000e+00  1.3052032827948080e-02 0.0000000000000000e+00 0.0000000000000000e+00  1.4144231227336070e-02 0.0000000000000000e+00 0.0000000000000000e+00  1.5070799015428103e-02 0.0000000000000000e+00 0.0000000000000000e+00  1.5744529234620476e-02 0.0000000000000000e+00 0.0000000000000000e+00  1.6057837846509264e-02 0.0000000000000000e+00 0.0000000000000000e+00  1.5879787877687710e-02 0.0000000000000000e+00 0.0000000000000000e+00  1.5053172956969816e-02 0.0000000000000000e+00 0.0000000000000000e+00  1.3391874583482967e-02 0.0000000000000000e+00 0.0000000000000000e+00  1.0678765783093781e-02 0.0000000000000000e+00 0.0000000000000000e+00  6.6644820689999761e-03 0.0000000000000000e+00 0.0000000000000000e+00  1.0674053276025480e-03 0.0000000000000000e+00 0.0000000000000000e+00  -6.4248080196596113e-03 0.0000000000000000e+00 0.0000000000000000e+00  -1.6151890309636742e-02 0.0000000000000000e+00 0.0000000000000000e+00  -2.8475679725647515e-02 0.0000000000000000e+00 0.0000000000000000e+00  -4.3772931644100781e-02 0.0000000000000000e+00 0.0000000000000000e+00  -6.2426457664191741e-02 0.0000000000000000e+00 0.0000000000000000e+00  -8.4814910802393909e-02 0.0000000000000000e+00 0.0000000000000000e+00  -1.1130097813497172e-01 0.0000000000000000e+00 0.0000000000000000e+00  -1.4221485196798739e-01 0.0000000000000000e+00 0.0000000000000000e+00  0.0000000000000000e+00 2.5378772534542162e-06 0.0000000000000000e+00  -3.8797877692863917e-06 -3.8797877718737758e-06 0.0000000000000000e+00  2.3741939679897596e-06 -1.9415773825244564e-05 0.0000000000000000e+00  2.7864014979039767e-05 -4.4210870271533520e-05 0.0000000000000000e+00  8.2341027884388798e-05 -7.8512309238367914e-05 0.0000000000000000e+00  1.7529093861140996e-04 -1.2231330785659377e-04 0.0000000000000000e+00  3.1589875584618399e-04 -1.7546592599492649e-04 0.0000000000000000e+00  5.1299814635596757e-04 -2.3774145752427316e-04 0.0000000000000000e+00  7.7498159080521042e-04 -3.0884976840207454e-04 0.0000000000000000e+00  1.1096803781578896e-03 -3.8844301818074004e-04 0.0000000000000000e+00  1.5242132237848771e-03 -4.7611410155545564e-04 0.0000000000000000e+00  2.0247968852476284e-03 -5.7139329045880047e-04 0.0000000000000000e+00  2.6165089887641708e-03 -6.7374424640101525e-04 0.0000000000000000e+00  3.3029905895342309e-03 -7.8255986326815710e-04 0.0000000000000000e+00  4.0860732128434763e-03 -8.9715819572604074e-04 0.0000000000000000e+00  4.9653121387957114e-03 -1.0167786783334706e-03 0.0000000000000000e+00  5.9374045577451186e-03 -1.1405788406393133e-03 0.0000000000000000e+00  6.9954681128353881e-03 -1.2676317403754697e-03 0.0000000000000000e+00  8.1281525614252045e-03 -1.3969243608328943e-03 0.0000000000000000e+00  9.3185552823359247e-03 -1.5273572441583782e-03 0.0000000000000000e+00  1.0542910772734336e-02 -1.6577456587811071e-03 0.0000000000000000e+00  1.1769025983085964e-02 -1.7868226233652943e-03 0.0000000000000000e+00  1.2954438446316051e-02 -1.9132441298194654e-03 0.0000000000000000e+00  1.4044284030128772e-02 -2.0355969194977876e-03 0.0000000000000000e+00  1.4968877331223263e-02 -2.1524091644468130e-03 0.0000000000000000e+00  1.5641031829299015e-02 -2.2621643799705994e-03 0.0000000000000000e+00  1.5953180271892107e-02 -2.3633188352760299e-03 0.0000000000000000e+00  1.5774398990639798e-02 -2.4543226199331331e-03 0.0000000000000000e+00  1.4947492168810833e-02 -2.5336443513978937e-03 0.0000000000000000e+00  1.3286350432169447e-02 -2.5997992597742987e-03 0.0000000000000000e+00  1.0573856307782761e-02 -2.6513800596615622e-03 0.0000000000000000e+00  6.5606571293685793e-03 -2.6870896331723012e-03 0.0000000000000000e+00  9.6515036254598966e-04 -2.7057741517772706e-03 0.0000000000000000e+00  -6.5249883823342457e-03 -2.7064549425958422e-03 0.0000000000000000e+00  -1.6249472234907397e-02 -2.6883572656754991e-03 0.0000000000000000e+00  -2.8570131074089788e-02 -2.6509342422159033e-03 0.0000000000000000e+00  -4.3863752206808493e-02 -2.5938838755556696e-03 0.0000000000000000e+00  -6.2513308762582598e-02 -2.5171528218104924e-03 0.0000000000000000e+00  -8.4898090852259855e-02 -2.4208961808757485e-03 0.0000000000000000e+00  -1.1138359329619038e-01 -2.3052578259374415e-03 0.0000000000000000e+00  -1.4231339467647453e-01 -2.1695247898640127e-03 0.0000000000000000e+00  0.0000000000000000e+00 1.3265569940774120e-05 0.0000000000000000e+00  -1.9415773824967780e-05 2.3741939667295961e-06 0.0000000000000000e+00  -2.8058915558288273e-05 -2.8058915557210871e-05 0.0000000000000000e+00  -1.7275459871455427e-05 -7.7736923241032658e-05 0.0000000000000000e+00  2.2501653640964149e-05 -1.4656944575302202e-04 0.0000000000000000e+00  1.0072801368106064e-04 -2.3436628325538829e-04 0.0000000000000000e+00  2.2660456651539976e-04 -3.4081358798761165e-04 0.0000000000000000e+00  4.0898925760415622e-04 -4.6547239400131430e-04 0.0000000000000000e+00  6.5630082803746635e-04 -6.0778263811456733e-04 0.0000000000000000e+00  9.7639959975832837e-04 -7.6706454611314605e-04 0.0000000000000000e+00  1.3764377664997906e-03 -9.4251616780779957e-04 0.0000000000000000e+00  1.8626713578501358e-03 -1.1332080958417544e-03 0.0000000000000000e+00  2.4402239828150993e-03 -1.3380765418354492e-03 0.0000000000000000e+00  3.1127899474292309e-03 -1.5559156489175401e-03 0.0000000000000000e+00  3.8822615544464810e-03 -1.7853696807610311e-03 0.0000000000000000e+00  4.7482623755617515e-03 -2.0249256025991038e-03 0.0000000000000000e+00  5.7075651258365351e-03 -2.2729065265142366e-03 0.0000000000000000e+00  6.7533696447631218e-03 -2.5274664957646840e-03 0.0000000000000000e+00  7.8744136976134482e-03 -2.7865871092123797e-03 0.0000000000000000e+00  9.0538873054797128e-03 -3.0480765241731409e-03 0.0000000000000000e+00  1.0268120734342939e-02 -3.3095714169908471e-03 0.0000000000000000e+00  1.1485017987841314e-02 -3.5685425198097569e-03 0.0000000000000000e+00  1.2662212770760397e-02 -3.8223043844091489e-03 0.0000000000000000e+00  1.3744933782834834e-02 -4.0680300438313355e-03 0.0000000000000000e+00  1.4663582415723591e-02 -4.3027712413207745e-03 0.0000000000000000e+00  1.5331050051310928e-02 -4.5234848621876220e-03 0.0000000000000000e+00  1.5639835537265435e-02 -4.7270661222445862e-03 0.0000000000000000e+00  1.5459066663264602e-02 -4.9103889146578815e-03 0.0000000000000000e+00  1.4631581782806715e-02 -5.0703534723032379e-03 0.0000000000000000e+00  1.2971286054219761e-02 -5.2039411394798852e-03 0.0000000000000000e+00  1.0261054884303237e-02 -5.3082755482083003e-03 0.0000000000000000e+00  6.2515050738653679e-03 -5.3806888604837093e-03 0.0000000000000000e+00  6.6097835923083334e-04 -5.4187909962358687e-03 0.0000000000000000e+00  -6.8229330008879804e-03 -5.4205389673855006e-03 0.0000000000000000e+00  -1.6540057412123790e-02 -5.3843025994302967e-03 0.0000000000000000e+00  -2.8852380553981392e-02 -5.3089218672911819e-03 0.0000000000000000e+00  -4.4136903591577695e-02 -5.1937491652848354e-03 0.0000000000000000e+00  -6.2776905616045944e-02 -5.0386663231599231e-03 0.0000000000000000e+00  -8.5152126472947648e-02 -4.8440659540905113e-03 0.0000000000000000e+00  -1.1162859326077455e-01 -4.6108348817864818e-03 0.0000000000000000e+00  -1.4254885829307418e-01 -4.3407397169502454e-03 0.0000000000000000e+00  0.0000000000000000e+00 4.3468011258890478e-05 0.0000000000000000e+00  -4.4210870273899222e-05 2.7864014977801710e-05 0.0000000000000000e+00  -7.7736923242416927e-05 -1.7275459872511812e-05 0.0000000000000000e+00  -9.1611779561120613e-05 -9.1611779560900073e-05 0.0000000000000000e+00  -7.6420245984210570e-05 -1.9485714233597641e-04 0.0000000000000000e+00  -2.2750605760649013e-05 -3.2663497563277597e-04 0.0000000000000000e+00  7.8593780026852989e-05 -4.8642507679990050e-04 0.0000000000000000e+00  2.3648744706142270e-04 -6.7355193650204973e-04 0.0000000000000000e+00  4.5937941801668653e-04 -8.8717752787927518e-04 0.0000000000000000e+00  7.5517141402438900e-04 -1.1262934117804461e-03 0.0000000000000000e+00  1.1310677707895760e-03 -1.3897116638586454e-03 0.0000000000000000e+00  1.5933878794479064e-03 -1.6760545782415689e-03 0.0000000000000000e+00  2.1473306027551017e-03 -1.9837433746640086e-03 0.0000000000000000e+00  2.7966779589131954e-03 -2.3109863394019476e-03 0.0000000000000000e+00  3.5434227379360869e-03 -2.6557669406033261e-03 0.0000000000000000e+00  4.3873017630622303e-03 -3.0158325161936642e-03 0.0000000000000000e+00  5.3252133730434057e-03 -3.3886841749846503e-03 0.0000000000000000e+00  6.3504945836518377e-03 -3.7715685964428993e-03 0.0000000000000000e+00  7.4520305987788573e-03 -4.1614724665130377e-03 0.0000000000000000e+00  8.6131673399516013e-03 -4.5551203447059766e-03 0.0000000000000000e+00  9.8103970911784608e-03 -4.9489768171805289e-03 0.0000000000000000e+00  1.1011789080846015e-02 -5.3392538481173346e-03 0.0000000000000000e+00  1.2175141959882651e-02 -5.7219242915649863e-03 0.0000000000000000e+00  1.3245845048227302e-02 -6.0927425623438286e-03 0.0000000000000000e+00  1.4154451460149606e-02 -6.4472734779954738e-03 0.0000000000000000e+00  1.4813990373918342e-02 -6.7809302616548680e-03 0.0000000000000000e+00  1.5117079121989174e-02 -7.0890226187813035e-03 0.0000000000000000e+00  1.4932939058401169e-02 -7.3668156417949267e-03 0.0000000000000000e+00  1.4104471511933515e-02 -7.6096000214616729e-03 0.0000000000000000e+00  1.2445608484291862e-02 -7.8127736095386733e-03 0.0000000000000000e+00  9.7392108701150806e-03 -7.9719337413297880e-03 0.0000000000000000e+00  5.7358348787743740e-03 -8.0829788580075775e-03 0.0000000000000000e+00  1.5371149879245383e-04 -8.1422168595078337e-03 0.0000000000000000e+00  -7.3197312365299808e-03 -8.1464763005793719e-03 0.0000000000000000e+00  -1.7024541852645344e-02 -8.0932150881935973e-03 0.0000000000000000e+00  -2.9322983042398814e-02 -7.9806199162624023e-03 0.0000000000000000e+00  -4.4592387641340915e-02 -7.8076889081405299e-03 0.0000000000000000e+00  -6.3216410411890273e-02 -7.5742923793496470e-03 0.0000000000000000e+00  -8.5575179984833355e-02 -7.2812207180008972e-03 0.0000000000000000e+00  -1.1203505488033909e-01 -6.9302728972353575e-03 0.0000000000000000e+00  -1.4293885337748585e-01 -6.5245157729585807e-03 0.0000000000000000e+00  0.0000000000000000e+00 1.0280120804399877e-04 0.0000000000000000e+00  -7.8512309240557447e-05 8.2341027881595202e-05 0.0000000000000000e+00  -1.4656944575387599e-04 2.2501653640257327e-05 0.0000000000000000e+00  -1.9485714233945342e-04 -7.6420245981779410e-05 0.0000000000000000e+00  -2.1400846599425410e-04 -2.1400846599198571e-04 0.0000000000000000e+00  -1.9464349295474033e-04 -3.8972489891152333e-04 0.0000000000000000e+00  -1.2756639246739755e-04 -6.0285775127172738e-04 0.0000000000000000e+00  -3.8828857226023948e-06 -8.5250200988099998e-04 0.0000000000000000e+00  1.8489237483116307e-04 -1.1375464445130589e-03 0.0000000000000000e+00  4.4671326904472579e-04 -1.4566605952557249e-03 0.0000000000000000e+00  7.8885240741479812e-04 -1.8082804448605304e-03 0.0000000000000000e+00  1.2177142155067446e-03 -2.1905928505378774e-03 0.0000000000000000e+00  1.7386000652490608e-03 -2.6015191102075974e-03 0.0000000000000000e+00  2.3554125563891629e-03 -3.0386981379425283e-03 0.0000000000000000e+00  3.0702834706980188e-03 -3.4994698124746295e-03 0.0000000000000000e+00  3.8831069982923033e-03 -3.9808591575031882e-03 0.0000000000000000e+00  4.7909567172701503e-03 -4.4795621087409705e-03 0.0000000000000000e+00  5.7873617017878010e-03 -4.9919337169232782e-03 0.0000000000000000e+00  6.8614143537102153e-03 -5.5139797291796364e-03 0.0000000000000000e+00  7.9966805585423434e-03 -6.0413525836265393e-03 0.0000000000000000e+00  9.1698822031182382e-03 -6.5693529422000737e-03 0.0000000000000000e+00  1.0349323829212342e-02 -7.0929379734387104e-03 0.0000000000000000e+00  1.1493040351105521e-02 -7.6067376755088959e-03 0.0000000000000000e+00  1.2546652699521413e-02 -8.1050805954975373e-03 0.0000000000000000e+00  1.3440934521025022e-02 -8.5820303442034618e-03 0.0000000000000000e+00  1.4089117251840561e-02 -9.0314343121981073e-03 0.0000000000000000e+00  1.4383994338403589e-02 -9.4469859399512589e-03 0.0000000000000000e+00  1.4194928708496396e-02 -9.8223017474960237e-03 0.0000000000000000e+00  1.3364920008684418e-02 -1.0151014039018845e-02 0.0000000000000000e+00  1.1707946542893411e-02 -1.0426879701353699e-02 0.0000000000000000e+00  9.0068550407160341e-03 -1.0643904741407223e-02 0.0000000000000000e+00  5.0121193717278315e-03 -1.0796483091007229e-02 0.0000000000000000e+00  -5.5818641945623701e-04 -1.0879546718142596e-02 0.0000000000000000e+00  -8.0168703306819720e-03 -1.0888722265644963e-02 0.0000000000000000e+00  -1.7704297657956086e-02 -1.0820487476111723e-02 0.0000000000000000e+00  -2.9983126211881716e-02 -1.0672318995247834e-02 0.0000000000000000e+00  -4.5231154421158555e-02 -1.0442822688849213e-02 0.0000000000000000e+00  -6.3832559348130202e-02 -1.0131839901606356e-02 0.0000000000000000e+00  -8.6168033633899951e-02 -9.7405288567197594e-03 0.0000000000000000e+00  -1.1260454154361040e-01 -9.2714202531092339e-03 0.0000000000000000e+00  -1.4348559763608201e-01 -8.7283857411113008e-03 0.0000000000000000e+00  0.0000000000000000e+00 2.0065614521233891e-04 0.0000000000000000e+00  -1.2231330785902723e-04 1.7529093860887542e-04 0.0000000000000000e+00  -2.3436628325594402e-04 1.0072801368210681e-04 0.0000000000000000e+00  -3.2663497563692310e-04 -2.2750605758809654e-05 0.0000000000000000e+00  -3.8972489891309780e-04 -1.9464349295524291e-04 0.0000000000000000e+00  -4.1427202231366012e-04 -4.1427202231369943e-04 0.0000000000000000e+00  -3.9107676604770858e-04 -6.8074891733087392e-04 0.0000000000000000e+00  -3.1122050485390756e-04 -9.9295490694698767e-04 0.0000000000000000e+00  -1.6617430002057465e-04 -1.3495208927386442e-03 0.0000000000000000e+00  5.2078751046380007e-05 -1.7488103079366987e-03 0.0000000000000000e+00  3.5089473670757253e-04 -2.1889001091704411e-03 0.0000000000000000e+00  7.3678325779543590e-04 -2.6675602993934105e-03 0.0000000000000000e+00  1.2151737117780954e-03 -3.1822323648207644e-03 0.0000000000000000e+00  1.7901204736819627e-03 -3.7300071986023494e-03 0.0000000000000000e+00  2.4639313787420090e-03 -4.3076031983888359e-03 0.0000000000000000e+00  3.2367010004862445e-03 -4.9113453297478672e-03 0.0000000000000000e+00  4.1057271023370850e-03 -5.5371460591940314e-03 0.0000000000000000e+00  5.0647855359583806e-03 -6.1804891795352096e-03 0.0000000000000000e+00  6.1032360815705148e-03 -6.8364176741672906e-03 0.0000000000000000e+00  7.2049297353712393e-03 -7.4995268932235926e-03 0.0000000000000000e+00  8.3468873928687244e-03 -8.1639644409054034e-03 0.0000000000000000e+00  9.4977216246839528e-03 -8.8234382975907362e-03 0.0000000000000000e+00  1.0615778411192852e-02 -9.4712348190392620e-03 0.0000000000000000e+00  1.1646985658963943e-02 -1.0100248363053312e-02 0.0000000000000000e+00  1.2522411619101302e-02 -1.0703024381422101e-02 0.0000000000000000e+00  1.3155560557892713e-02 -1.1271817865645321e-02 0.0000000000000000e+00  1.3439466537486459e-02 -1.1798669020923205e-02 0.0000000000000000e+00  1.3243689566782171e-02 -1.2275497920124438e-02 0.0000000000000000e+00  1.2411370886524527e-02 -1.2694219593882578e-02 0.0000000000000000e+00  1.0756562688525749e-02 -1.3046880457634196e-02 0.0000000000000000e+00  8.0621059044589938e-03 -1.3325816060286577e-02 0.0000000000000000e+00  4.0783778506394940e-03 -1.3523828763931441e-02 0.0000000000000000e+00  -1.4767440518940968e-03 -1.3634382076206831e-02 0.0000000000000000e+00  -8.9163710436935203e-03 -1.3651806003609273e-02 0.0000000000000000e+00  -1.8581280938170186e-02 -1.3571505195721043e-02 0.0000000000000000e+00  -3.0834651032609399e-02 -1.3390159245577396e-02 0.0000000000000000e+00  -4.6054898398045795e-02 -1.3105902858107461e-02 0.0000000000000000e+00  -6.4626905265025861e-02 -1.2718472756835117e-02 0.0000000000000000e+00  -8.6932139549700665e-02 -1.2229305691819698e-02 0.0000000000000000e+00  -1.1333838062120717e-01 -1.1641558345548867e-02 0.0000000000000000e+00  -1.4418988407294744e-01 -1.0959976307905498e-02 0.0000000000000000e+00  0.0000000000000000e+00 3.4617969128648287e-04 0.0000000000000000e+00  -1.7546592599257017e-04 3.1589875584638738e-04 0.0000000000000000e+00  -3.4081358798663354e-04 2.2660456651500894e-04 0.0000000000000000e+00  -4.8642507679853522e-04 7.8593780029872560e-05 0.0000000000000000e+00  -6.0285775127026479e-04 -1.2756639246721453e-04 0.0000000000000000e+00  -6.8074891732942359e-04 -3.9107676604807227e-04 0.0000000000000000e+00  -7.1089168586934651e-04 -7.1089168587166400e-04 0.0000000000000000e+00  -6.8434021542772500e-04 -1.0856955102856410e-03 0.0000000000000000e+00  -5.9251658066778758e-04 -1.5138808652523229e-03 0.0000000000000000e+00  -4.2733179004072493e-04 -1.9935264912381958e-03 0.0000000000000000e+00  -1.8133288378810786e-04 -2.5223734812750359e-03 0.0000000000000000e+00  1.5211317369035618e-04 -3.0977997707474481e-03 0.0000000000000000e+00  5.7858740967767425e-04 -3.7167932515491018e-03 0.0000000000000000e+00  1.1023253309547386e-03 -4.3759241333672198e-03 0.0000000000000000e+00  1.7258462542525707e-03 -5.0713173352257938e-03 0.0000000000000000e+00  2.4494868532088524e-03 -5.7986258279709444e-03 0.0000000000000000e+00  3.2708171816906769e-03 -6.5530059864328744e-03 0.0000000000000000e+00  4.1839143259698522e-03 -7.3290961558354932e-03 0.0000000000000000e+00  5.1784660576634145e-03 -8.1209997910718906e-03 0.0000000000000000e+00  6.2386748688690501e-03 -8.9222746883819547e-03 0.0000000000000000e+00  7.3419322175982665e-03 -9.7259299953199579e-03 0.0000000000000000e+00  8.4572345669839261e-03 -1.0524432853895526e-02 0.0000000000000000e+00  9.5433179848549744e-03 -1.1309726700360290e-02 0.0000000000000000e+00  1.0546498048064920e-02 -1.2073263407884416e-02 0.0000000000000000e+00  1.1398218124543823e-02 -1.2806051604380950e-02 0.0000000000000000e+00  1.2012333382115187e-02 -1.3498723607762901e-02 0.0000000000000000e+00  1.2282191445804062e-02 -1.4141623461394486e-02 0.0000000000000000e+00  1.2077614119850085e-02 -1.4724918468826679e-02 0.0000000000000000e+00  1.1241937220829976e-02 -1.5238736337676540e-02 0.0000000000000000e+00  9.5893242703929595e-03 -1.5673329436507066e-02 0.0000000000000000e+00  6.9026283387686547e-03 -1.6019266611546228e-02 0.0000000000000000e+00  2.9321247163214127e-03 -1.6267651367476814e-02 0.0000000000000000e+00  -2.6045382411134326e-03 -1.6410362899027191e-02 0.0000000000000000e+00  -1.0020837342020542e-02 -1.6440313489527552e-0