<?xml version="1.0"?>
<VTKFile type="UnstructuredGrid"  version="0.1"  >
<UnstructuredGrid>
<Piece  NumberOfPoints="1681" NumberOfCells="3200">
<Points>
<DataArray  type="Float64"  NumberOfComponents="3"  format="ascii">0 0 0  0.5 0 0  1 0 0  1.5 0 0  2 0 0  2.5 0 0  3 0 0  3.5 0 0  4 0 0  4.5 0 0  5 0 0  5.5 0 0  6 0 0  6.5 0 0  7 0 0  7.5 0 0  8 0 0  8.5 0 0  9 0 0  9.5 0 0  10 0 0  10.5 0 0  11 0 0  11.5 0 0  12 0 0  12.5 0 0  13 0 0  13.5 0 0  14 0 0  14.5 0 0  15 0 0  15.5 0 0  16 0 0  16.5 0 0  17 0 0  17.5 0 0  18 0 0  18.5 0 0  19 0 0  19.5 0 0  20 0 0  0 0.5 0  0.5 0.5 0  1 0.5 0  1.5 0.5 0  2 0.5 0  2.5 0.5 0  3 0.5 0  3.5 0.5 0  4 0.5 0  4.5 0.5 0  5 0.5 0  5.5 0.5 0  6 0.5 0  6.5 0.5 0  7 0.5 0  7.5 0.5 0  8 0.5 0  8.5 0.5 0  9 0.5 0  9.5 0.5 0  10 0.5 0  10.5 0.5 0  11 0.5 0  11.5 0.5 0  12 0.5 0  12.5 0.5 0  13 0.5 0  13.5 0.5 0  14 0.5 0  14.5 0.5 0  15 0.5 0  15.5 0.5 0  16 0.5 0  16.5 0.5 0  17 0.5 0  17.5 0.5 0  18 0.5 0  18.5 0.5 0  19 0.5 0  19.5 0.5 0  20 0.5 0  0 1 0  0.5 1 0  1 1 0  1.5 1 0  2 1 0  2.5 1 0  3 1 0  3.5 1 0  4 1 0  4.5 1 0  5 1 0  5.5 1 0  6 1 0  6.5 1 0  7 1 0  7.5 1 0  8 1 0  8.5 1 0  9 1 0  9.5 1 0  10 1 0  10.5 1 0  11 1 0  11.5 1 0  12 1 0  12.5 1 0  13 1 0  13.5 1 0  14 1 0  14.5 1 0  15 1 0  15.5 1 0  16 1 0  16.5 1 0  17 1 0  17.5 1 0  18 1 0  18.5 1 0  19 1 0  19.5 1 0  20 1 0  0 1.5 0  0.5 1.5 0  1 1.5 0  1.5 1.5 0  2 1.5 0  2.5 1.5 0  3 1.5 0  3.5 1.5 0  4 1.5 0  4.5 1.5 0  5 1.5 0  5.5 1.5 0  6 1.5 0  6.5 1.5 0  7 1.5 0  7.5 1.5 0  8 1.5 0  8.5 1.5 0  9 1.5 0  9.5 1.5 0  10 1.5 0  10.5 1.5 0  11 1.5 0  11.5 1.5 0  12 1.5 0  12.5 1.5 0  13 1.5 0  13.5 1.5 0  14 1.5 0  14.5 1.5 0  15 1.5 0  15.5 1.5 0  16 1.5 0  16.5 1.5 0  17 1.5 0  17.5 1.5 0  18 1.5 0  18.5 1.5 0  19 1.5 0  19.5 1.5 0  20 1.5 0  0 2 0  0.5 2 0  1 2 0  1.5 2 0  2 2 0  2.5 2 0  3 2 0  3.5 2 0  4 2 0  4.5 2 0  5 2 0  5.5 2 0  6 2 0  6.5 2 0  7 2 0  7.5 2 0  8 2 0  8.5 2 0  9 2 0  9.5 2 0  10 2 0  10.5 2 0  11 2 0  11.5 2 0  12 2 0  12.5 2 0  13 2 0  13.5 2 0  14 2 0  14.5 2 0  15 2 0  15.5 2 0  16 2 0  16.5 2 0  17 2 0  17.5 2 0  18 2 0  18.5 2 0  19 2 0  19.5 2 0  20 2 0  0 2.5 0  0.5 2.5 0  1 2.5 0  1.5 2.5 0  2 2.5 0  2.5 2.5 0  3 2.5 0  3.5 2.5 0  4 2.5 0  4.5 2.5 0  5 2.5 0  5.5 2.5 0  6 2.5 0  6.5 2.5 0  7 2.5 0  7.5 2.5 0  8 2.5 0  8.5 2.5 0  9 2.5 0  9.5 2.5 0  10 2.5 0  10.5 2.5 0  11 2.5 0  11.5 2.5 0  12 2.5 0  12.5 2.5 0  13 2.5 0  13.5 2.5 0  14 2.5 0  14.5 2.5 0  15 2.5 0  15.5 2.5 0  16 2.5 0  16.5 2.5 0  17 2.5 0  17.5 2.5 0  18 2.5 0  18.5 2.5 0  19 2.5 0  19.5 2.5 0  20 2.5 0  0 3 0  0.5 3 0  1 3 0  1.5 3 0  2 3 0  2.5 3 0  3 3 0  3.5 3 0  4 3 0  4.5 3 0  5 3 0  5.5 3 0  6 3 0  6.5 3 0  7 3 0  7.5 3 0  8 3 0  8.5 3 0  9 3 0  9.5 3 0  10 3 0  10.5 3 0  11 3 0  11.5 3 0  12 3 0  12.5 3 0  13 3 0  13.5 3 0  14 3 0  14.5 3 0  15 3 0  15.5 3 0  16 3 0  16.5 3 0  17 3 0  17.5 3 0  18 3 0  18.5 3 0  19 3 0  19.5 3 0  20 3 0  0 3.5 0  0.5 3.5 0  1 3.5 0  1.5 3.5 0  2 3.5 0  2.5 3.5 0  3 3.5 0  3.5 3.5 0  4 3.5 0  4.5 3.5 0  5 3.5 0  5.5 3.5 0  6 3.5 0  6.5 3.5 0  7 3.5 0  7.5 3.5 0  8 3.5 0  8.5 3.5 0  9 3.5 0  9.5 3.5 0  10 3.5 0  10.5 3.5 0  11 3.5 0  11.5 3.5 0  12 3.5 0  12.5 3.5 0  13 3.5 0  13.5 3.5 0  14 3.5 0  14.5 3.5 0  15 3.5 0  15.5 3.5 0  16 3.5 0  16.5 3.5 0  17 3.5 0  17.5 3.5 0  18 3.5 0  18.5 3.5 0  19 3.5 0  19.5 3.5 0  20 3.5 0  0 4 0  0.5 4 0  1 4 0  1.5 4 0  2 4 0  2.5 4 0  3 4 0  3.5 4 0  4 4 0  4.5 4 0  5 4 0  5.5 4 0  6 4 0  6.5 4 0  7 4 0  7.5 4 0  8 4 0  8.5 4 0  9 4 0  9.5 4 0  10 4 0  10.5 4 0  11 4 0  11.5 4 0  12 4 0  12.5 4 0  13 4 0  13.5 4 0  14 4 0  14.5 4 0  15 4 0  15.5 4 0  16 4 0  16.5 4 0  17 4 0  17.5 4 0  18 4 0  18.5 4 0  19 4 0  19.5 4 0  20 4 0  0 4.5 0  0.5 4.5 0  1 4.5 0  1.5 4.5 0  2 4.5 0  2.5 4.5 0  3 4.5 0  3.5 4.5 0  4 4.5 0  4.5 4.5 0  5 4.5 0  5.5 4.5 0  6 4.5 0  6.5 4.5 0  7 4.5 0  7.5 4.5 0  8 4.5 0  8.5 4.5 0  9 4.5 0  9.5 4.5 0  10 4.5 0  10.5 4.5 0  11 4.5 0  11.5 4.5 0  12 4.5 0  12.5 4.5 0  13 4.5 0  13.5 4.5 0  14 4.5 0  14.5 4.5 0  15 4.5 0  15.5 4.5 0  16 4.5 0  16.5 4.5 0  17 4.5 0  17.5 4.5 0  18 4.5 0  18.5 4.5 0  19 4.5 0  19.5 4.5 0  20 4.5 0  0 5 0  0.5 5 0  1 5 0  1.5 5 0  2 5 0  2.5 5 0  3 5 0  3.5 5 0  4 5 0  4.5 5 0  5 5 0  5.5 5 0  6 5 0  6.5 5 0  7 5 0  7.5 5 0  8 5 0  8.5 5 0  9 5 0  9.5 5 0  10 5 0  10.5 5 0  11 5 0  11.5 5 0  12 5 0  12.5 5 0  13 5 0  13.5 5 0  14 5 0  14.5 5 0  15 5 0  15.5 5 0  16 5 0  16.5 5 0  17 5 0  17.5 5 0  18 5 0  18.5 5 0  19 5 0  19.5 5 0  20 5 0  0 5.5 0  0.5 5.5 0  1 5.5 0  1.5 5.5 0  2 5.5 0  2.5 5.5 0  3 5.5 0  3.5 5.5 0  4 5.5 0  4.5 5.5 0  5 5.5 0  5.5 5.5 0  6 5.5 0  6.5 5.5 0  7 5.5 0  7.5 5.5 0  8 5.5 0  8.5 5.5 0  9 5.5 0  9.5 5.5 0  10 5.5 0  10.5 5.5 0  11 5.5 0  11.5 5.5 0  12 5.5 0  12.5 5.5 0  13 5.5 0  13.5 5.5 0  14 5.5 0  14.5 5.5 0  15 5.5 0  15.5 5.5 0  16 5.5 0  16.5 5.5 0  17 5.5 0  17.5 5.5 0  18 5.5 0  18.5 5.5 0  19 5.5 0  19.5 5.5 0  20 5.5 0  0 6 0  0.5 6 0  1 6 0  1.5 6 0  2 6 0  2.5 6 0  3 6 0  3.5 6 0  4 6 0  4.5 6 0  5 6 0  5.5 6 0  6 6 0  6.5 6 0  7 6 0  7.5 6 0  8 6 0  8.5 6 0  9 6 0  9.5 6 0  10 6 0  10.5 6 0  11 6 0  11.5 6 0  12 6 0  12.5 6 0  13 6 0  13.5 6 0  14 6 0  14.5 6 0  15 6 0  15.5 6 0  16 6 0  16.5 6 0  17 6 0  17.5 6 0  18 6 0  18.5 6 0  19 6 0  19.5 6 0  20 6 0  0 6.5 0  0.5 6.5 0  1 6.5 0  1.5 6.5 0  2 6.5 0  2.5 6.5 0  3 6.5 0  3.5 6.5 0  4 6.5 0  4.5 6.5 0  5 6.5 0  5.5 6.5 0  6 6.5 0  6.5 6.5 0  7 6.5 0  7.5 6.5 0  8 6.5 0  8.5 6.5 0  9 6.5 0  9.5 6.5 0  10 6.5 0  10.5 6.5 0  11 6.5 0  11.5 6.5 0  12 6.5 0  12.5 6.5 0  13 6.5 0  13.5 6.5 0  14 6.5 0  14.5 6.5 0  15 6.5 0  15.5 6.5 0  16 6.5 0  16.5 6.5 0  17 6.5 0  17.5 6.5 0  18 6.5 0  18.5 6.5 0  19 6.5 0  19.5 6.5 0  20 6.5 0  0 7 0  0.5 7 0  1 7 0  1.5 7 0  2 7 0  2.5 7 0  3 7 0  3.5 7 0  4 7 0  4.5 7 0  5 7 0  5.5 7 0  6 7 0  6.5 7 0  7 7 0  7.5 7 0  8 7 0  8.5 7 0  9 7 0  9.5 7 0  10 7 0  10.5 7 0  11 7 0  11.5 7 0  12 7 0  12.5 7 0  13 7 0  13.5 7 0  14 7 0  14.5 7 0  15 7 0  15.5 7 0  16 7 0  16.5 7 0  17 7 0  17.5 7 0  18 7 0  18.5 7 0  19 7 0  19.5 7 0  20 7 0  0 7.5 0  0.5 7.5 0  1 7.5 0  1.5 7.5 0  2 7.5 0  2.5 7.5 0  3 7.5 0  3.5 7.5 0  4 7.5 0  4.5 7.5 0  5 7.5 0  5.5 7.5 0  6 7.5 0  6.5 7.5 0  7 7.5 0  7.5 7.5 0  8 7.5 0  8.5 7.5 0  9 7.5 0  9.5 7.5 0  10 7.5 0  10.5 7.5 0  11 7.5 0  11.5 7.5 0  12 7.5 0  12.5 7.5 0  13 7.5 0  13.5 7.5 0  14 7.5 0  14.5 7.5 0  15 7.5 0  15.5 7.5 0  16 7.5 0  16.5 7.5 0  17 7.5 0  17.5 7.5 0  18 7.5 0  18.5 7.5 0  19 7.5 0  19.5 7.5 0  20 7.5 0  0 8 0  0.5 8 0  1 8 0  1.5 8 0  2 8 0  2.5 8 0  3 8 0  3.5 8 0  4 8 0  4.5 8 0  5 8 0  5.5 8 0  6 8 0  6.5 8 0  7 8 0  7.5 8 0  8 8 0  8.5 8 0  9 8 0  9.5 8 0  10 8 0  10.5 8 0  11 8 0  11.5 8 0  12 8 0  12.5 8 0  13 8 0  13.5 8 0  14 8 0  14.5 8 0  15 8 0  15.5 8 0  16 8 0  16.5 8 0  17 8 0  17.5 8 0  18 8 0  18.5 8 0  19 8 0  19.5 8 0  20 8 0  0 8.5 0  0.5 8.5 0  1 8.5 0  1.5 8.5 0  2 8.5 0  2.5 8.5 0  3 8.5 0  3.5 8.5 0  4 8.5 0  4.5 8.5 0  5 8.5 0  5.5 8.5 0  6 8.5 0  6.5 8.5 0  7 8.5 0  7.5 8.5 0  8 8.5 0  8.5 8.5 0  9 8.5 0  9.5 8.5 0  10 8.5 0  10.5 8.5 0  11 8.5 0  11.5 8.5 0  12 8.5 0  12.5 8.5 0  13 8.5 0  13.5 8.5 0  14 8.5 0  14.5 8.5 0  15 8.5 0  15.5 8.5 0  16 8.5 0  16.5 8.5 0  17 8.5 0  17.5 8.5 0  18 8.5 0  18.5 8.5 0  19 8.5 0  19.5 8.5 0  20 8.5 0  0 9 0  0.5 9 0  1 9 0  1.5 9 0  2 9 0  2.5 9 0  3 9 0  3.5 9 0  4 9 0  4.5 9 0  5 9 0  5.5 9 0  6 9 0  6.5 9 0  7 9 0  7.5 9 0  8 9 0  8.5 9 0  9 9 0  9.5 9 0  10 9 0  10.5 9 0  11 9 0  11.5 9 0  12 9 0  12.5 9 0  13 9 0  13.5 9 0  14 9 0  14.5 9 0  15 9 0  15.5 9 0  16 9 0  16.5 9 0  17 9 0  17.5 9 0  18 9 0  18.5 9 0  19 9 0  19.5 9 0  20 9 0  0 9.5 0  0.5 9.5 0  1 9.5 0  1.5 9.5 0  2 9.5 0  2.5 9.5 0  3 9.5 0  3.5 9.5 0  4 9.5 0  4.5 9.5 0  5 9.5 0  5.5 9.5 0  6 9.5 0  6.5 9.5 0  7 9.5 0  7.5 9.5 0  8 9.5 0  8.5 9.5 0  9 9.5 0  9.5 9.5 0  10 9.5 0  10.5 9.5 0  11 9.5 0  11.5 9.5 0  12 9.5 0  12.5 9.5 0  13 9.5 0  13.5 9.5 0  14 9.5 0  14.5 9.5 0  15 9.5 0  15.5 9.5 0  16 9.5 0  16.5 9.5 0  17 9.5 0  17.5 9.5 0  18 9.5 0  18.5 9.5 0  19 9.5 0  19.5 9.5 0  20 9.5 0  0 10 0  0.5 10 0  1 10 0  1.5 10 0  2 10 0  2.5 10 0  3 10 0  3.5 10 0  4 10 0  4.5 10 0  5 10 0  5.5 10 0  6 10 0  6.5 10 0  7 10 0  7.5 10 0  8 10 0  8.5 10 0  9 10 0  9.5 10 0  10 10 0  10.5 10 0  11 10 0  11.5 10 0  12 10 0  12.5 10 0  13 10 0  13.5 10 0  14 10 0  14.5 10 0  15 10 0  15.5 10 0  16 10 0  16.5 10 0  17 10 0  17.5 10 0  18 10 0  18.5 10 0  19 10 0  19.5 10 0  20 10 0  0 10.5 0  0.5 10.5 0  1 10.5 0  1.5 10.5 0  2 10.5 0  2.5 10.5 0  3 10.5 0  3.5 10.5 0  4 10.5 0  4.5 10.5 0  5 10.5 0  5.5 10.5 0  6 10.5 0  6.5 10.5 0  7 10.5 0  7.5 10.5 0  8 10.5 0  8.5 10.5 0  9 10.5 0  9.5 10.5 0  10 10.5 0  10.5 10.5 0  11 10.5 0  11.5 10.5 0  12 10.5 0  12.5 10.5 0  13 10.5 0  13.5 10.5 0  14 10.5 0  14.5 10.5 0  15 10.5 0  15.5 10.5 0  16 10.5 0  16.5 10.5 0  17 10.5 0  17.5 10.5 0  18 10.5 0  18.5 10.5 0  19 10.5 0  19.5 10.5 0  20 10.5 0  0 11 0  0.5 11 0  1 11 0  1.5 11 0  2 11 0  2.5 11 0  3 11 0  3.5 11 0  4 11 0  4.5 11 0  5 11 0  5.5 11 0  6 11 0  6.5 11 0  7 11 0  7.5 11 0  8 11 0  8.5 11 0  9 11 0  9.5 11 0  10 11 0  10.5 11 0  11 11 0  11.5 11 0  12 11 0  12.5 11 0  13 11 0  13.5 11 0  14 11 0  14.5 11 0  15 11 0  15.5 11 0  16 11 0  16.5 11 0  17 11 0  17.5 11 0  18 11 0  18.5 11 0  19 11 0  19.5 11 0  20 11 0  0 11.5 0  0.5 11.5 0  1 11.5 0  1.5 11.5 0  2 11.5 0  2.5 11.5 0  3 11.5 0  3.5 11.5 0  4 11.5 0  4.5 11.5 0  5 11.5 0  5.5 11.5 0  6 11.5 0  6.5 11.5 0  7 11.5 0  7.5 11.5 0  8 11.5 0  8.5 11.5 0  9 11.5 0  9.5 11.5 0  10 11.5 0  10.5 11.5 0  11 11.5 0  11.5 11.5 0  12 11.5 0  12.5 11.5 0  13 11.5 0  13.5 11.5 0  14 11.5 0  14.5 11.5 0  15 11.5 0  15.5 11.5 0  16 11.5 0  16.5 11.5 0  17 11.5 0  17.5 11.5 0  18 11.5 0  18.5 11.5 0  19 11.5 0  19.5 11.5 0  20 11.5 0  0 12 0  0.5 12 0  1 12 0  1.5 12 0  2 12 0  2.5 12 0  3 12 0  3.5 12 0  4 12 0  4.5 12 0  5 12 0  5.5 12 0  6 12 0  6.5 12 0  7 12 0  7.5 12 0  8 12 0  8.5 12 0  9 12 0  9.5 12 0  10 12 0  10.5 12 0  11 12 0  11.5 12 0  12 12 0  12.5 12 0  13 12 0  13.5 12 0  14 12 0  14.5 12 0  
[...]
<PointData  Vectors="f_5623-0"> 
<DataArray  type="Float64"  Name="f_5623-0"  NumberOfComponents="3" format="ascii">0.0000000000000000e+00 0.0000000000000000e+00 0.0000000000000000e+00  2.4885661398226404e-06 0.0000000000000000e+00 0.0000000000000000e+00  1.3518146108500712e-05 0.0000000000000000e+00 0.0000000000000000e+00  4.4886648977647098e-05 0.0000000000000000e+00 0.0000000000000000e+00  1.0667412096621766e-04 0.0000000000000000e+00 0.0000000000000000e+00  2.0867363768116431e-04 0.0000000000000000e+00 0.0000000000000000e+00  3.6041021154210585e-04 0.0000000000000000e+00 0.0000000000000000e+00  5.7104620327071869e-04 0.0000000000000000e+00 0.0000000000000000e+00  8.4926590335809068e-04 0.0000000000000000e+00 0.0000000000000000e+00  1.2031374924754846e-03 0.0000000000000000e+00 0.0000000000000000e+00  1.6399441789154584e-03 0.0000000000000000e+00 0.0000000000000000e+00  2.1659751248491207e-03 0.0000000000000000e+00 0.0000000000000000e+00  2.7862650997663762e-03 0.0000000000000000e+00 0.0000000000000000e+00  3.5042696033059230e-03 0.0000000000000000e+00 0.0000000000000000e+00  4.3214596451000044e-03 0.0000000000000000e+00 0.0000000000000000e+00  5.2368175762130880e-03 0.0000000000000000e+00 0.0000000000000000e+00  6.2462124826977283e-03 0.0000000000000000e+00 0.0000000000000000e+00  7.3416309008687277e-03 0.0000000000000000e+00 0.0000000000000000e+00  8.5102363336016958e-03 0.0000000000000000e+00 0.0000000000000000e+00  9.7332297219054568e-03 0.0000000000000000e+00 0.0000000000000000e+00  1.0984483323452445e-02 0.0000000000000000e+00 0.0000000000000000e+00  1.2228923248875933e-02 0.0000000000000000e+00 0.0000000000000000e+00  1.3420642314498294e-02 0.0000000000000000e+00 0.0000000000000000e+00  1.4500736202509286e-02 0.0000000000000000e+00 0.0000000000000000e+00  1.5394873626151244e-02 0.0000000000000000e+00 0.0000000000000000e+00  1.6010636683241611e-02 0.0000000000000000e+00 0.0000000000000000e+00  1.6234701898858273e-02 0.0000000000000000e+00 0.0000000000000000e+00  1.5929975809968619e-02 0.0000000000000000e+00 0.0000000000000000e+00  1.4932850013827022e-02 0.0000000000000000e+00 0.0000000000000000e+00  1.3050795743223027e-02 0.0000000000000000e+00 0.0000000000000000e+00  1.0060570527787045e-02 0.0000000000000000e+00 0.0000000000000000e+00  5.7073491972958138e-03 0.0000000000000000e+00 0.0000000000000000e+00  -2.9489469756947617e-04 0.0000000000000000e+00 0.0000000000000000e+00  -8.2614571220338134e-03 0.0000000000000000e+00 0.0000000000000000e+00  -1.8533199114276151e-02 0.0000000000000000e+00 0.0000000000000000e+00  -3.1470979898454786e-02 0.0000000000000000e+00 0.0000000000000000e+00  -4.7448314067989113e-02 0.0000000000000000e+00 0.0000000000000000e+00  -6.6842520187640961e-02 0.0000000000000000e+00 0.0000000000000000e+00  -9.0024688831993174e-02 0.0000000000000000e+00 0.0000000000000000e+00  -1.1734819745083594e-01 0.0000000000000000e+00 0.0000000000000000e+00  -1.4913258642244864e-01 0.0000000000000000e+00 0.0000000000000000e+00  0.0000000000000000e+00 2.4885661350473274e-06 0.0000000000000000e+00  -4.2374389117967909e-06 -4.2374389143557452e-06 0.0000000000000000e+00  2.1096784413582872e-06 -2.0509963552039335e-05 0.0000000000000000e+00  2.8544997280724724e-05 -4.6475736548988689e-05 0.0000000000000000e+00  8.5248201077575198e-05 -8.2394820221540967e-05 0.0000000000000000e+00  1.8211184422898733e-04 -1.2826099225645690e-04 0.0000000000000000e+00  3.2870104130159234e-04 -1.8391997586437780e-04 0.0000000000000000e+00  5.3419601915125048e-04 -2.4913286303791766e-04 0.0000000000000000e+00  8.0729249841016506e-04 -3.2359647892938226e-04 0.0000000000000000e+00  1.1560691986225668e-03 -4.0694734986198341e-04 0.0000000000000000e+00  1.5878210203905856e-03 -4.9876012325460596e-04 0.0000000000000000e+00  2.1088508194731458e-03 -5.9854409402032550e-04 0.0000000000000000e+00  2.7242094496460153e-03 -7.0573906483647054e-04 0.0000000000000000e+00  3.4373710590020596e-03 -8.1971102142437951e-04 0.0000000000000000e+00  4.2498279085424698e-03 -9.3974788761792838e-04 0.0000000000000000e+00  5.1605861323957046e-03 -1.0650555717233940e-03 0.0000000000000000e+00  6.1655409532211901e-03 -1.1947545151934978e-03 0.0000000000000000e+00  7.2567071075116648e-03 -1.3278769719369530e-03 0.0000000000000000e+00  8.4212779537688846e-03 -1.4633652716474132e-03 0.0000000000000000e+00  9.6404854147006044e-03 -1.6000713476493375e-03 0.0000000000000000e+00  1.0888233209553205e-02 -1.7367578380045085e-03 0.0000000000000000e+00  1.2129478644058578e-02 -1.8721010949989802e-03 0.0000000000000000e+00  1.3318344650538745e-02 -2.0046964604902239e-03 0.0000000000000000e+00  1.4395955125458292e-02 -2.1330661784467204e-03 0.0000000000000000e+00  1.5288004343348132e-02 -2.2556703156074408e-03 0.0000000000000000e+00  1.5902096737123787e-02 -2.3709210370100962e-03 0.0000000000000000e+00  1.6124927669278463e-02 -2.4772005241211958e-03 0.0000000000000000e+00  1.5819419169766598e-02 -2.5728827141200559e-03 0.0000000000000000e+00  1.4821975651680003e-02 -2.6563588656860282e-03 0.0000000000000000e+00  1.2940079675597540e-02 -2.7260667070243003e-03 0.0000000000000000e+00  9.9505001862990466e-03 -2.7805225954561134e-03 0.0000000000000000e+00  5.5984251293605238e-03 -2.8183557327350426e-03 0.0000000000000000e+00  -4.0215611462293005e-04 -2.8383430836411605e-03 0.0000000000000000e+00  -8.3665216014746149e-03 -2.8394433200645331e-03 0.0000000000000000e+00  -1.8635516474868215e-02 -2.8208279651315100e-03 0.0000000000000000e+00  -3.1569997538121022e-02 -2.7819079699677642e-03 0.0000000000000000e+00  -4.7543520625985700e-02 -2.7223536184495930e-03 0.0000000000000000e+00  -6.6933581052215058e-02 -2.6421011679583902e-03 0.0000000000000000e+00  -9.0111937645164272e-02 -2.5413141308536242e-03 0.0000000000000000e+00  -1.1743486883794818e-01 -2.4201570552741217e-03 0.0000000000000000e+00  -1.4923559863060215e-01 -2.2779104336696256e-03 0.0000000000000000e+00  0.0000000000000000e+00 1.3518146101470547e-05 0.0000000000000000e+00  -2.0509963551870663e-05 2.1096784404249480e-06 0.0000000000000000e+00  -2.9762393254759717e-05 -2.9762393253359131e-05 0.0000000000000000e+00  -1.8725922641456655e-05 -8.1785318825317062e-05 0.0000000000000000e+00  2.2585229561476566e-05 -1.5386471068132662e-04 0.0000000000000000e+00  1.0403179517218726e-04 -2.4580213271385124e-04 0.0000000000000000e+00  2.3519549316469449e-04 -3.5726986601330031e-04 0.0000000000000000e+00  4.2528190532629951e-04 -4.8780932008961222e-04 0.0000000000000000e+00  6.8301413844712292e-04 -6.3683528990064460e-04 0.0000000000000000e+00  1.0165011384898775e-03 -8.0363748578730616e-04 0.0000000000000000e+00  1.4330726183571659e-03 -9.8737803597883050e-04 0.0000000000000000e+00  1.9390722429596971e-03 -1.1870860353771732e-03 0.0000000000000000e+00  2.5395986350119242e-03 -1.4016503644746958e-03 0.0000000000000000e+00  3.2381812611208057e-03 -1.6298116941358277e-03 0.0000000000000000e+00  4.0363755318650416e-03 -1.8701543407355810e-03 0.0000000000000000e+00  4.9332585651203588e-03 -2.1210985044635552e-03 0.0000000000000000e+00  5.9248041299830223e-03 -2.3808933774057115e-03 0.0000000000000000e+00  7.0031125144708424e-03 -2.6476116100079702e-03 0.0000000000000000e+00  8.1554687717511464e-03 -2.9191456521691452e-03 0.0000000000000000e+00  9.3632014769853417e-03 -3.1932065249981761e-03 0.0000000000000000e+00  1.0600314436468491e-02 -3.4673256239633019e-03 0.0000000000000000e+00  1.1831866611265077e-02 -3.7388601980687108e-03 0.0000000000000000e+00  1.3012081956514453e-02 -4.0050031877120161e-03 0.0000000000000000e+00  1.4082182250975763e-02 -4.2627981299313113e-03 0.0000000000000000e+00  1.4967953745071474e-02 -4.5091598448546936e-03 0.0000000000000000e+00  1.5577083991138751e-02 -4.7409015889808212e-03 0.0000000000000000e+00  1.5796339576563383e-02 -4.9547692828868749e-03 0.0000000000000000e+00  1.5488698848081215e-02 -5.1474832703341583e-03 0.0000000000000000e+00  1.4490604752361247e-02 -5.3157878178506862e-03 0.0000000000000000e+00  1.2609557955932738e-02 -5.4565081920866301e-03 0.0000000000000000e+00  9.6223227027457704e-03 -5.5666146386642405e-03 0.0000000000000000e+00  5.2740572424420902e-03 -5.6432919306347315e-03 0.0000000000000000e+00  -7.2130599617617355e-04 -5.6840123844309337e-03 0.0000000000000000e+00  -8.6791322045366853e-03 -5.6866094063609835e-03 0.0000000000000000e+00  -1.8940388659484070e-02 -5.6493477488865152e-03 0.0000000000000000e+00  -3.1866098443134677e-02 -5.5709855367619444e-03 0.0000000000000000e+00  -4.7830046047916949e-02 -5.4508210996755731e-03 0.0000000000000000e+00  -6.7210052927283548e-02 -5.2887139183085477e-03 0.0000000000000000e+00  -9.0378354342538519e-02 -5.0850685461802814e-03 0.0000000000000000e+00  -1.1769178914071896e-01 -4.8408200247169290e-03 0.0000000000000000e+00  -1.4948252016922986e-01 -4.5578372627954758e-03 0.0000000000000000e+00  0.0000000000000000e+00 4.4886648974748429e-05 0.0000000000000000e+00  -4.6475736552359988e-05 2.8544997279936956e-05 0.0000000000000000e+00  -8.1785318827275281e-05 -1.8725922641788567e-05 0.0000000000000000e+00  -9.6569735829195145e-05 -9.6569735828907534e-05 0.0000000000000000e+00  -8.1002969663762636e-05 -2.0468497023322843e-04 0.0000000000000000e+00  -2.5270567756138073e-05 -3.4267792340096447e-04 0.0000000000000000e+00  8.0204457504817118e-05 -5.1000488171808059e-04 0.0000000000000000e+00  2.4464484927243832e-04 -7.0595983922211903e-04 0.0000000000000000e+00  4.7680516901021144e-04 -9.2966698567016680e-04 0.0000000000000000e+00  7.8483738510836407e-04 -1.1800725178430589e-03 0.0000000000000000e+00  1.1761253913163165e-03 -1.4559352353686610e-03 0.0000000000000000e+00  1.6570786836610479e-03 -1.7558158596810143e-03 0.0000000000000000e+00  2.2328740709322125e-03 -2.0780653023870026e-03 0.0000000000000000e+00  2.9071321617153874e-03 -2.4208123231374266e-03 0.0000000000000000e+00  3.6815128123805722e-03 -2.7819511322932297e-03 0.0000000000000000e+00  4.5552109047192124e-03 -3.1591295531505858e-03 0.0000000000000000e+00  5.5243309152729929e-03 -3.5497384021929020e-03 0.0000000000000000e+00  6.5811159721972162e-03 -3.9509027922882316e-03 0.0000000000000000e+00  7.7130048095179682e-03 -4.3594761186912757e-03 0.0000000000000000e+00  8.9014887090850172e-03 -4.7720375497750126e-03 0.0000000000000000e+00  1.0120740835361573e-02 -5.1848939100804566e-03 0.0000000000000000e+00  1.1335993198202977e-02 -5.5940869084926863e-03 0.0000000000000000e+00  1.2501642931539353e-02 -5.9954067238597517e-03 0.0000000000000000e+00  1.3559080968205560e-02 -6.3844130073750418e-03 0.0000000000000000e+00  1.4434253968662705e-02 -6.7564643858749954e-03 0.0000000000000000e+00  1.5034995925305850e-02 -7.1067575384576951e-03 0.0000000000000000e+00  1.5248200253531149e-02 -7.4303768494030174e-03 0.0000000000000000e+00  1.4936946582398285e-02 -7.7223554833902724e-03 0.0000000000000000e+00  1.3937747528136023e-02 -7.9777484466491983e-03 0.0000000000000000e+00  1.2058135800204803e-02 -8.1917177441540468e-03 0.0000000000000000e+00  9.0748643024174073e-03 -8.3596290732409501e-03 0.0000000000000000e+00  4.7330312665863471e-03 -8.4771585761062515e-03 0.0000000000000000e+00  -1.2535442229622581e-03 -8.5404070021270553e-03 0.0000000000000000e+00  -9.2003978748118227e-03 -8.5460172413138781e-03 0.0000000000000000e+00  -1.9448727495276860e-02 -8.4912896616392165e-03 0.0000000000000000e+00  -3.2359847963060878e-02 -8.3742881928091061e-03 0.0000000000000000e+00  -4.8307894577054797e-02 -8.1939293000512295e-03 0.0000000000000000e+00  -6.7671087396949131e-02 -7.9500485581423322e-03 0.0000000000000000e+00  -9.0822075511875280e-02 -7.6434543663218583e-03 0.0000000000000000e+00  -1.1811805258061205e-01 -7.2760256266581171e-03 0.0000000000000000e+00  -1.4989147033796305e-01 -6.8509945637220768e-03 0.0000000000000000e+00  0.0000000000000000e+00 1.0667412096785202e-04 0.0000000000000000e+00  -8.2394820223801284e-05 8.5248201075575482e-05 0.0000000000000000e+00  -1.5386471068192420e-04 2.2585229560452215e-05 0.0000000000000000e+00  -2.0468497023492819e-04 -8.1002969661258766e-05 0.0000000000000000e+00  -2.2508038936235606e-04 -2.2508038936063475e-04 0.0000000000000000e+00  -2.0527007376431119e-04 -4.0908414145802898e-04 0.0000000000000000e+00  -1.3567811641072134e-04 -6.3226996384409858e-04 0.0000000000000000e+00  -7.0613700715687278e-06 -8.9369172590680510e-04 0.0000000000000000e+00  1.8937241437405985e-04 -1.1921878754729285e-03 0.0000000000000000e+00  4.6182936692238280e-04 -1.5263679142937467e-03 0.0000000000000000e+00  8.1776429635973115e-04 -1.8945975168379434e-03 0.0000000000000000e+00  1.2636750333798216e-03 -2.2949823551387878e-03 0.0000000000000000e+00  1.8048448907173320e-03 -2.7253510093655569e-03 0.0000000000000000e+00  2.4450197864255762e-03 -3.1832374479820818e-03 0.0000000000000000e+00  3.1860040670342242e-03 -3.6658636535483332e-03 0.0000000000000000e+00  4.0271562822934426e-03 -4.1701230683700912e-03 0.0000000000000000e+00  4.9647632758165134e-03 -4.6925656339267168e-03 0.0000000000000000e+00  5.9912682012484451e-03 -5.2293852963800789e-03 0.0000000000000000e+00  7.0943257952657286e-03 -5.7764109489261807e-03 0.0000000000000000e+00  8.2556569254141118e-03 -6.3291018810225017e-03 0.0000000000000000e+00  9.4496747532192820e-03 -6.8825489035235351e-03 0.0000000000000000e+00  1.0641857693350725e-02 -7.4314824167368227e-03 0.0000000000000000e+00  1.1786850817190666e-02 -7.9702887805466090e-03 0.0000000000000000e+00  1.2826288761316616e-02 -8.4930364269573382e-03 0.0000000000000000e+00  1.3686351005777525e-02 -8.9935132149576852e-03 0.0000000000000000e+00  1.4275085985278520e-02 -9.4652765492342708e-03 0.0000000000000000e+00  1.4479574929540788e-02 -9.9017177420934084e-03 0.0000000000000000e+00  1.4163049785056305e-02 -1.0296141952912599e-02 0.0000000000000000e+00  1.3162130707558057e-02 -1.0641864738022056e-02 0.0000000000000000e+00  1.1284403760020026e-02 -1.0932325717734023e-02 0.0000000000000000e+00  8.3066118546756239e-03 -1.1161219040984825e-02 0.0000000000000000e+00  3.9737714541759461e-03 -1.1322639136699489e-02 0.0000000000000000e+00  -2.0004590173739911e-03 -1.1411238658049315e-02 0.0000000000000000e+00  -9.9318598742596190e-03 -1.1422393606992029e-02 0.0000000000000000e+00  -2.0161959505389768e-02 -1.1352368573640909e-02 0.0000000000000000e+00  -3.3052487064663780e-02 -1.1198473307242619e-02 0.0000000000000000e+00  -4.8978067720140600e-02 -1.0959201419586853e-02 0.0000000000000000e+00  -6.8317472689398404e-02 -1.0634344551517483e-02 0.0000000000000000e+00  -9.1443948066250655e-02 -1.0225081694817000e-02 0.0000000000000000e+00  -1.1871533182494563e-01 -9.7340441300390115e-03 0.0000000000000000e+00  -1.5046482712141965e-01 -9.1652955874638523e-03 0.0000000000000000e+00  0.0000000000000000e+00 2.0867363768291170e-04 0.0000000000000000e+00  -1.2826099225670334e-04 1.8211184422711101e-04 0.0000000000000000e+00  -2.4580213271317345e-04 1.0403179517304847e-04 0.0000000000000000e+00  -3.4267792340515209e-04 -2.5270567754853243e-05 0.0000000000000000e+00  -4.0908414145918317e-04 -2.0527007376427121e-04 0.0000000000000000e+00  -4.3525667431567260e-04 -4.3525667431496213e-04 0.0000000000000000e+00  -4.1161589602890466e-04 -7.1430238295274145e-04 0.0000000000000000e+00  -3.2889345516248981e-04 -1.0412368249509817e-03 0.0000000000000000e+00  -1.7825186333782000e-04 -1.4146286474571745e-03 0.0000000000000000e+00  4.8580453554837655e-05 -1.8327671784633113e-03 0.0000000000000000e+00  3.5914500847619837e-04 -2.2936426771090652e-03 0.0000000000000000e+00  7.6004888955973418e-04 -2.7949250518109901e-03 0.0000000000000000e+00  1.2567084294616395e-03 -3.3339414318232798e-03 0.0000000000000000e+00  1.8530272835942884e-03 -3.9076531762998242e-03 0.0000000000000000e+00  2.5509928326958890e-03 -4.5126330231517915e-03 0.0000000000000000e+00  3.3501720527750597e-03 -5.1450431880605985e-03 0.0000000000000000e+00  4.2470851104470650e-03 -5.8006153397318679e-03 0.0000000000000000e+00  5.2344321877165799e-03 -6.4746335015196240e-03 0.0000000000000000e+00  6.3001467629855631e-03 -7.1619210604204229e-03 0.0000000000000000e+00  7.4262472649234091e-03 -7.8568331997107971e-03 0.0000000000000000e+00  8.5874593434972987e-03 -8.5532562096064073e-03 0.0000000000000000e+00  9.7495838520587630e-03 -9.2446152694048728e-03 0.0000000000000000e+00  1.0867592115806507e-02 -9.9238924309492122e-03 0.0000000000000000e+00  1.1883441494474329e-02 -1.0583656661600289e-02 0.0000000000000000e+00  1.2723622080601111e-02 -1.1216107913654636e-02 0.0000000000000000e+00  1.3296471013382395e-02 -1.1813137257608851e-02 0.0000000000000000e+00  1.3489325377344635e-02 -1.2366405116864322e-02 0.0000000000000000e+00  1.3165628187231184e-02 -1.2867439521755220e-02 0.0000000000000000e+00  1.2162153199074689e-02 -1.3307755990544394e-02 0.0000000000000000e+00  1.0286569563883888e-02 -1.3679000050750487e-02 0.0000000000000000e+00  7.3156199043009039e-03 -1.3973112429898051e-02 0.0000000000000000e+00  2.9942250550070021e-03 -1.4182515471961001e-02 0.0000000000000000e+00  -2.9641576637539119e-03 -1.4300317327509041e-02 0.0000000000000000e+00  -1.0875622363824639e-02 -1.4320527984579395e-02 0.0000000000000000e+00  -2.1082127015650015e-02 -1.4238278499431442e-02 0.0000000000000000e+00  -3.3945943981570852e-02 -1.4050032323433742e-02 0.0000000000000000e+00  -4.9842347333166295e-02 -1.3753775999014043e-02 0.0000000000000000e+00  -6.9150850043601178e-02 -1.3349175790386766e-02 0.0000000000000000e+00  -9.2245516531803268e-02 -1.2837684457651759e-02 0.0000000000000000e+00  -1.1948505068096950e-01 -1.2222568528253467e-02 0.0000000000000000e+00  -1.5120345865961499e-01 -1.1508780619262918e-02 0.0000000000000000e+00  0.0000000000000000e+00 3.6041021153764095e-04 0.0000000000000000e+00  -1.8391997586245825e-04 3.2870104130296174e-04 0.0000000000000000e+00  -3.5726986601315855e-04 2.3519549316444131e-04 0.0000000000000000e+00  -5.1000488171734778e-04 8.0204457508420668e-05 0.0000000000000000e+00  -6.3226996384332316e-04 -1.3567811640970257e-04 0.0000000000000000e+00  -7.1430238295197340e-04 -4.1161589602775985e-04 0.0000000000000000e+00  -7.4651500310005461e-04 -7.4651500310140379e-04 0.0000000000000000e+00  -7.1961125210979180e-04 -1.1389994336292004e-03 0.0000000000000000e+00  -6.2470277983473648e-04 -1.5873884051253091e-03 0.0000000000000000e+00  -4.5344313872596191e-04 -2.0896733255800111e-03 0.0000000000000000e+00  -1.9819018901785470e-04 -2.6434931036088032e-03 0.0000000000000000e+00  1.4779139370722682e-04 -3.2461076355643271e-03 0.0000000000000000e+00  5.9007549829694463e-04 -3.8943698426122529e-03 0.0000000000000000e+00  1.1327540391229600e-03 -4.5846968919287341e-03 0.0000000000000000e+00  1.7780342756389623e-03 -5.3130414020993826e-03 0.0000000000000000e+00  2.5257350102049843e-03 -6.0748635747723571e-03 0.0000000000000000e+00  3.3726598004443610e-03 -6.8651053374241804e-03 0.0000000000000000e+00  4.3118225650521777e-03 -7.6781677341092045e-03 0.0000000000000000e+00  5.3314986809117892e-03 -8.5078929633717534e-03 0.0000000000000000e+00  6.4140733570786992e-03 -9.3475526344906790e-03 0.0000000000000000e+00  7.5346593998678541e-03 -1.0189843993824376e-02 0.0000000000000000e+00  8.6594593381309343e-03 -1.1026896060192986e-02 0.0000000000000000e+00  9.7438533701129874e-03 -1.1850287798620776e-02 0.0000000000000000e+00  1.0730206044943956e-02 -1.2651080649530667e-02 0.0000000000000000e+00  1.1545402455382747e-02 -1.3419867902863255e-02 0.0000000000000000e+00  1.2098150403329733e-02 -1.4146843541338791e-02 0.0000000000000000e+00  1.2276119557250798e-02 -1.4821893235682693e-02 0.0000000000000000e+00  1.1943032251764336e-02 -1.5434710095650131e-02 0.0000000000000000e+00  1.0935871956440996e-02 -1.5974937475028188e-02 0.0000000000000000e+00  9.0624309005641179e-03 -1.6432340476802344e-02 0.0000000000000000e+00  6.0994711331186233e-03 -1.6797006666328052e-02 0.0000000000000000e+00  1.7918132157669464e-03 -1.7059574740401151e-02 0.0000000000000000e+00  -4.1473193700596270e-03 -1.7211487436722493e-02 0.0000000000000000e+00  -1.2034398420328007e-02 -1.724526184141270