<?xml version="1.0"?>
<VTKFile type="UnstructuredGrid"  version="0.1"  >
<UnstructuredGrid>
<Piece  NumberOfPoints="1681" NumberOfCells="3200">
<Points>
<DataArray  type="Float64"  NumberOfComponents="3"  format="ascii">0 0 0  0.5 0 0  1 0 0  1.5 0 0  2 0 0  2.5 0 0  3 0 0  3.5 0 0  4 0 0  4.5 0 0  5 0 0  5.5 0 0  6 0 0  6.5 0 0  7 0 0  7.5 0 0  8 0 0  8.5 0 0  9 0 0  9.5 0 0  10 0 0  10.5 0 0  11 0 0  11.5 0 0  12 0 0  12.5 0 0  13 0 0  13.5 0 0  14 0 0  14.5 0 0  15 0 0  15.5 0 0  16 0 0  16.5 0 0  17 0 0  17.5 0 0  18 0 0  18.5 0 0  19 0 0  19.5 0 0  20 0 0  0 0.5 0  0.5 0.5 0  1 0.5 0  1.5 0.5 0  2 0.5 0  2.5 0.5 0  3 0.5 0  3.5 0.5 0  4 0.5 0  4.5 0.5 0  5 0.5 0  5.5 0.5 0  6 0.5 0  6.5 0.5 0  7 0.5 0  7.5 0.5 0  8 0.5 0  8.5 0.5 0  9 0.5 0  9.5 0.5 0  10 0.5 0  10.5 0.5 0  11 0.5 0  11.5 0.5 0  12 0.5 0  12.5 0.5 0  13 0.5 0  13.5 0.5 0  14 0.5 0  14.5 0.5 0  15 0.5 0  15.5 0.5 0  16 0.5 0  16.5 0.5 0  17 0.5 0  17.5 0.5 0  18 0.5 0  18.5 0.5 0  19 0.5 0  19.5 0.5 0  20 0.5 0  0 1 0  0.5 1 0  1 1 0  1.5 1 0  2 1 0  2.5 1 0  3 1 0  3.5 1 0  4 1 0  4.5 1 0  5 1 0  5.5 1 0  6 1 0  6.5 1 0  7 1 0  7.5 1 0  8 1 0  8.5 1 0  9 1 0  9.5 1 0  10 1 0  10.5 1 0  11 1 0  11.5 1 0  12 1 0  12.5 1 0  13 1 0  13.5 1 0  14 1 0  14.5 1 0  15 1 0  15.5 1 0  16 1 0  16.5 1 0  17 1 0  17.5 1 0  18 1 0  18.5 1 0  19 1 0  19.5 1 0  20 1 0  0 1.5 0  0.5 1.5 0  1 1.5 0  1.5 1.5 0  2 1.5 0  2.5 1.5 0  3 1.5 0  3.5 1.5 0  4 1.5 0  4.5 1.5 0  5 1.5 0  5.5 1.5 0  6 1.5 0  6.5 1.5 0  7 1.5 0  7.5 1.5 0  8 1.5 0  8.5 1.5 0  9 1.5 0  9.5 1.5 0  10 1.5 0  10.5 1.5 0  11 1.5 0  11.5 1.5 0  12 1.5 0  12.5 1.5 0  13 1.5 0  13.5 1.5 0  14 1.5 0  14.5 1.5 0  15 1.5 0  15.5 1.5 0  16 1.5 0  16.5 1.5 0  17 1.5 0  17.5 1.5 0  18 1.5 0  18.5 1.5 0  19 1.5 0  19.5 1.5 0  20 1.5 0  0 2 0  0.5 2 0  1 2 0  1.5 2 0  2 2 0  2.5 2 0  3 2 0  3.5 2 0  4 2 0  4.5 2 0  5 2 0  5.5 2 0  6 2 0  6.5 2 0  7 2 0  7.5 2 0  8 2 0  8.5 2 0  9 2 0  9.5 2 0  10 2 0  10.5 2 0  11 2 0  11.5 2 0  12 2 0  12.5 2 0  13 2 0  13.5 2 0  14 2 0  14.5 2 0  15 2 0  15.5 2 0  16 2 0  16.5 2 0  17 2 0  17.5 2 0  18 2 0  18.5 2 0  19 2 0  19.5 2 0  20 2 0  0 2.5 0  0.5 2.5 0  1 2.5 0  1.5 2.5 0  2 2.5 0  2.5 2.5 0  3 2.5 0  3.5 2.5 0  4 2.5 0  4.5 2.5 0  5 2.5 0  5.5 2.5 0  6 2.5 0  6.5 2.5 0  7 2.5 0  7.5 2.5 0  8 2.5 0  8.5 2.5 0  9 2.5 0  9.5 2.5 0  10 2.5 0  10.5 2.5 0  11 2.5 0  11.5 2.5 0  12 2.5 0  12.5 2.5 0  13 2.5 0  13.5 2.5 0  14 2.5 0  14.5 2.5 0  15 2.5 0  15.5 2.5 0  16 2.5 0  16.5 2.5 0  17 2.5 0  17.5 2.5 0  18 2.5 0  18.5 2.5 0  19 2.5 0  19.5 2.5 0  20 2.5 0  0 3 0  0.5 3 0  1 3 0  1.5 3 0  2 3 0  2.5 3 0  3 3 0  3.5 3 0  4 3 0  4.5 3 0  5 3 0  5.5 3 0  6 3 0  6.5 3 0  7 3 0  7.5 3 0  8 3 0  8.5 3 0  9 3 0  9.5 3 0  10 3 0  10.5 3 0  11 3 0  11.5 3 0  12 3 0  12.5 3 0  13 3 0  13.5 3 0  14 3 0  14.5 3 0  15 3 0  15.5 3 0  16 3 0  16.5 3 0  17 3 0  17.5 3 0  18 3 0  18.5 3 0  19 3 0  19.5 3 0  20 3 0  0 3.5 0  0.5 3.5 0  1 3.5 0  1.5 3.5 0  2 3.5 0  2.5 3.5 0  3 3.5 0  3.5 3.5 0  4 3.5 0  4.5 3.5 0  5 3.5 0  5.5 3.5 0  6 3.5 0  6.5 3.5 0  7 3.5 0  7.5 3.5 0  8 3.5 0  8.5 3.5 0  9 3.5 0  9.5 3.5 0  10 3.5 0  10.5 3.5 0  11 3.5 0  11.5 3.5 0  12 3.5 0  12.5 3.5 0  13 3.5 0  13.5 3.5 0  14 3.5 0  14.5 3.5 0  15 3.5 0  15.5 3.5 0  16 3.5 0  16.5 3.5 0  17 3.5 0  17.5 3.5 0  18 3.5 0  18.5 3.5 0  19 3.5 0  19.5 3.5 0  20 3.5 0  0 4 0  0.5 4 0  1 4 0  1.5 4 0  2 4 0  2.5 4 0  3 4 0  3.5 4 0  4 4 0  4.5 4 0  5 4 0  5.5 4 0  6 4 0  6.5 4 0  7 4 0  7.5 4 0  8 4 0  8.5 4 0  9 4 0  9.5 4 0  10 4 0  10.5 4 0  11 4 0  11.5 4 0  12 4 0  12.5 4 0  13 4 0  13.5 4 0  14 4 0  14.5 4 0  15 4 0  15.5 4 0  16 4 0  16.5 4 0  17 4 0  17.5 4 0  18 4 0  18.5 4 0  19 4 0  19.5 4 0  20 4 0  0 4.5 0  0.5 4.5 0  1 4.5 0  1.5 4.5 0  2 4.5 0  2.5 4.5 0  3 4.5 0  3.5 4.5 0  4 4.5 0  4.5 4.5 0  5 4.5 0  5.5 4.5 0  6 4.5 0  6.5 4.5 0  7 4.5 0  7.5 4.5 0  8 4.5 0  8.5 4.5 0  9 4.5 0  9.5 4.5 0  10 4.5 0  10.5 4.5 0  11 4.5 0  11.5 4.5 0  12 4.5 0  12.5 4.5 0  13 4.5 0  13.5 4.5 0  14 4.5 0  14.5 4.5 0  15 4.5 0  15.5 4.5 0  16 4.5 0  16.5 4.5 0  17 4.5 0  17.5 4.5 0  18 4.5 0  18.5 4.5 0  19 4.5 0  19.5 4.5 0  20 4.5 0  0 5 0  0.5 5 0  1 5 0  1.5 5 0  2 5 0  2.5 5 0  3 5 0  3.5 5 0  4 5 0  4.5 5 0  5 5 0  5.5 5 0  6 5 0  6.5 5 0  7 5 0  7.5 5 0  8 5 0  8.5 5 0  9 5 0  9.5 5 0  10 5 0  10.5 5 0  11 5 0  11.5 5 0  12 5 0  12.5 5 0  13 5 0  13.5 5 0  14 5 0  14.5 5 0  15 5 0  15.5 5 0  16 5 0  16.5 5 0  17 5 0  17.5 5 0  18 5 0  18.5 5 0  19 5 0  19.5 5 0  20 5 0  0 5.5 0  0.5 5.5 0  1 5.5 0  1.5 5.5 0  2 5.5 0  2.5 5.5 0  3 5.5 0  3.5 5.5 0  4 5.5 0  4.5 5.5 0  5 5.5 0  5.5 5.5 0  6 5.5 0  6.5 5.5 0  7 5.5 0  7.5 5.5 0  8 5.5 0  8.5 5.5 0  9 5.5 0  9.5 5.5 0  10 5.5 0  10.5 5.5 0  11 5.5 0  11.5 5.5 0  12 5.5 0  12.5 5.5 0  13 5.5 0  13.5 5.5 0  14 5.5 0  14.5 5.5 0  15 5.5 0  15.5 5.5 0  16 5.5 0  16.5 5.5 0  17 5.5 0  17.5 5.5 0  18 5.5 0  18.5 5.5 0  19 5.5 0  19.5 5.5 0  20 5.5 0  0 6 0  0.5 6 0  1 6 0  1.5 6 0  2 6 0  2.5 6 0  3 6 0  3.5 6 0  4 6 0  4.5 6 0  5 6 0  5.5 6 0  6 6 0  6.5 6 0  7 6 0  7.5 6 0  8 6 0  8.5 6 0  9 6 0  9.5 6 0  10 6 0  10.5 6 0  11 6 0  11.5 6 0  12 6 0  12.5 6 0  13 6 0  13.5 6 0  14 6 0  14.5 6 0  15 6 0  15.5 6 0  16 6 0  16.5 6 0  17 6 0  17.5 6 0  18 6 0  18.5 6 0  19 6 0  19.5 6 0  20 6 0  0 6.5 0  0.5 6.5 0  1 6.5 0  1.5 6.5 0  2 6.5 0  2.5 6.5 0  3 6.5 0  3.5 6.5 0  4 6.5 0  4.5 6.5 0  5 6.5 0  5.5 6.5 0  6 6.5 0  6.5 6.5 0  7 6.5 0  7.5 6.5 0  8 6.5 0  8.5 6.5 0  9 6.5 0  9.5 6.5 0  10 6.5 0  10.5 6.5 0  11 6.5 0  11.5 6.5 0  12 6.5 0  12.5 6.5 0  13 6.5 0  13.5 6.5 0  14 6.5 0  14.5 6.5 0  15 6.5 0  15.5 6.5 0  16 6.5 0  16.5 6.5 0  17 6.5 0  17.5 6.5 0  18 6.5 0  18.5 6.5 0  19 6.5 0  19.5 6.5 0  20 6.5 0  0 7 0  0.5 7 0  1 7 0  1.5 7 0  2 7 0  2.5 7 0  3 7 0  3.5 7 0  4 7 0  4.5 7 0  5 7 0  5.5 7 0  6 7 0  6.5 7 0  7 7 0  7.5 7 0  8 7 0  8.5 7 0  9 7 0  9.5 7 0  10 7 0  10.5 7 0  11 7 0  11.5 7 0  12 7 0  12.5 7 0  13 7 0  13.5 7 0  14 7 0  14.5 7 0  15 7 0  15.5 7 0  16 7 0  16.5 7 0  17 7 0  17.5 7 0  18 7 0  18.5 7 0  19 7 0  19.5 7 0  20 7 0  0 7.5 0  0.5 7.5 0  1 7.5 0  1.5 7.5 0  2 7.5 0  2.5 7.5 0  3 7.5 0  3.5 7.5 0  4 7.5 0  4.5 7.5 0  5 7.5 0  5.5 7.5 0  6 7.5 0  6.5 7.5 0  7 7.5 0  7.5 7.5 0  8 7.5 0  8.5 7.5 0  9 7.5 0  9.5 7.5 0  10 7.5 0  10.5 7.5 0  11 7.5 0  11.5 7.5 0  12 7.5 0  12.5 7.5 0  13 7.5 0  13.5 7.5 0  14 7.5 0  14.5 7.5 0  15 7.5 0  15.5 7.5 0  16 7.5 0  16.5 7.5 0  17 7.5 0  17.5 7.5 0  18 7.5 0  18.5 7.5 0  19 7.5 0  19.5 7.5 0  20 7.5 0  0 8 0  0.5 8 0  1 8 0  1.5 8 0  2 8 0  2.5 8 0  3 8 0  3.5 8 0  4 8 0  4.5 8 0  5 8 0  5.5 8 0  6 8 0  6.5 8 0  7 8 0  7.5 8 0  8 8 0  8.5 8 0  9 8 0  9.5 8 0  10 8 0  10.5 8 0  11 8 0  11.5 8 0  12 8 0  12.5 8 0  13 8 0  13.5 8 0  14 8 0  14.5 8 0  15 8 0  15.5 8 0  16 8 0  16.5 8 0  17 8 0  17.5 8 0  18 8 0  18.5 8 0  19 8 0  19.5 8 0  20 8 0  0 8.5 0  0.5 8.5 0  1 8.5 0  1.5 8.5 0  2 8.5 0  2.5 8.5 0  3 8.5 0  3.5 8.5 0  4 8.5 0  4.5 8.5 0  5 8.5 0  5.5 8.5 0  6 8.5 0  6.5 8.5 0  7 8.5 0  7.5 8.5 0  8 8.5 0  8.5 8.5 0  9 8.5 0  9.5 8.5 0  10 8.5 0  10.5 8.5 0  11 8.5 0  11.5 8.5 0  12 8.5 0  12.5 8.5 0  13 8.5 0  13.5 8.5 0  14 8.5 0  14.5 8.5 0  15 8.5 0  15.5 8.5 0  16 8.5 0  16.5 8.5 0  17 8.5 0  17.5 8.5 0  18 8.5 0  18.5 8.5 0  19 8.5 0  19.5 8.5 0  20 8.5 0  0 9 0  0.5 9 0  1 9 0  1.5 9 0  2 9 0  2.5 9 0  3 9 0  3.5 9 0  4 9 0  4.5 9 0  5 9 0  5.5 9 0  6 9 0  6.5 9 0  7 9 0  7.5 9 0  8 9 0  8.5 9 0  9 9 0  9.5 9 0  10 9 0  10.5 9 0  11 9 0  11.5 9 0  12 9 0  12.5 9 0  13 9 0  13.5 9 0  14 9 0  14.5 9 0  15 9 0  15.5 9 0  16 9 0  16.5 9 0  17 9 0  17.5 9 0  18 9 0  18.5 9 0  19 9 0  19.5 9 0  20 9 0  0 9.5 0  0.5 9.5 0  1 9.5 0  1.5 9.5 0  2 9.5 0  2.5 9.5 0  3 9.5 0  3.5 9.5 0  4 9.5 0  4.5 9.5 0  5 9.5 0  5.5 9.5 0  6 9.5 0  6.5 9.5 0  7 9.5 0  7.5 9.5 0  8 9.5 0  8.5 9.5 0  9 9.5 0  9.5 9.5 0  10 9.5 0  10.5 9.5 0  11 9.5 0  11.5 9.5 0  12 9.5 0  12.5 9.5 0  13 9.5 0  13.5 9.5 0  14 9.5 0  14.5 9.5 0  15 9.5 0  15.5 9.5 0  16 9.5 0  16.5 9.5 0  17 9.5 0  17.5 9.5 0  18 9.5 0  18.5 9.5 0  19 9.5 0  19.5 9.5 0  20 9.5 0  0 10 0  0.5 10 0  1 10 0  1.5 10 0  2 10 0  2.5 10 0  3 10 0  3.5 10 0  4 10 0  4.5 10 0  5 10 0  5.5 10 0  6 10 0  6.5 10 0  7 10 0  7.5 10 0  8 10 0  8.5 10 0  9 10 0  9.5 10 0  10 10 0  10.5 10 0  11 10 0  11.5 10 0  12 10 0  12.5 10 0  13 10 0  13.5 10 0  14 10 0  14.5 10 0  15 10 0  15.5 10 0  16 10 0  16.5 10 0  17 10 0  17.5 10 0  18 10 0  18.5 10 0  19 10 0  19.5 10 0  20 10 0  0 10.5 0  0.5 10.5 0  1 10.5 0  1.5 10.5 0  2 10.5 0  2.5 10.5 0  3 10.5 0  3.5 10.5 0  4 10.5 0  4.5 10.5 0  5 10.5 0  5.5 10.5 0  6 10.5 0  6.5 10.5 0  7 10.5 0  7.5 10.5 0  8 10.5 0  8.5 10.5 0  9 10.5 0  9.5 10.5 0  10 10.5 0  10.5 10.5 0  11 10.5 0  11.5 10.5 0  12 10.5 0  12.5 10.5 0  13 10.5 0  13.5 10.5 0  14 10.5 0  14.5 10.5 0  15 10.5 0  15.5 10.5 0  16 10.5 0  16.5 10.5 0  17 10.5 0  17.5 10.5 0  18 10.5 0  18.5 10.5 0  19 10.5 0  19.5 10.5 0  20 10.5 0  0 11 0  0.5 11 0  1 11 0  1.5 11 0  2 11 0  2.5 11 0  3 11 0  3.5 11 0  4 11 0  4.5 11 0  5 11 0  5.5 11 0  6 11 0  6.5 11 0  7 11 0  7.5 11 0  8 11 0  8.5 11 0  9 11 0  9.5 11 0  10 11 0  10.5 11 0  11 11 0  11.5 11 0  12 11 0  12.5 11 0  13 11 0  13.5 11 0  14 11 0  14.5 11 0  15 11 0  15.5 11 0  16 11 0  16.5 11 0  17 11 0  17.5 11 0  18 11 0  18.5 11 0  19 11 0  19.5 11 0  20 11 0  0 11.5 0  0.5 11.5 0  1 11.5 0  1.5 11.5 0  2 11.5 0  2.5 11.5 0  3 11.5 0  3.5 11.5 0  4 11.5 0  4.5 11.5 0  5 11.5 0  5.5 11.5 0  6 11.5 0  6.5 11.5 0  7 11.5 0  7.5 11.5 0  8 11.5 0  8.5 11.5 0  9 11.5 0  9.5 11.5 0  10 11.5 0  10.5 11.5 0  11 11.5 0  11.5 11.5 0  12 11.5 0  12.5 11.5 0  13 11.5 0  13.5 11.5 0  14 11.5 0  14.5 11.5 0  15 11.5 0  15.5 11.5 0  16 11.5 0  16.5 11.5 0  17 11.5 0  17.5 11.5 0  18 11.5 0  18.5 11.5 0  19 11.5 0  19.5 11.5 0  20 11.5 0  0 12 0  0.5 12 0  1 12 0  1.5 12 0  2 12 0  2.5 12 0  3 12 0  3.5 12 0  4 12 0  4.5 12 0  5 12 0  5.5 12 0  6 12 0  6.5 12 0  7 12 0  7.5 12 0  8 12 0  8.5 12 0  9 12 0  9.5 12 0  10 12 0  10.5 12 0  11 12 0  11.5 12 0  12 12 0  12.5 12 0  13 12 0  13.5 12 0  14 12 0  14.5 12 0  
[...]
<PointData  Vectors="f_5623-0"> 
<DataArray  type="Float64"  Name="f_5623-0"  NumberOfComponents="3" format="ascii">0.0000000000000000e+00 0.0000000000000000e+00 0.0000000000000000e+00  2.5161221412875165e-06 0.0000000000000000e+00 0.0000000000000000e+00  1.2513930906602031e-05 0.0000000000000000e+00 0.0000000000000000e+00  4.0252974948521587e-05 0.0000000000000000e+00 0.0000000000000000e+00  9.4535956780634025e-05 0.0000000000000000e+00 0.0000000000000000e+00  1.8393995776272009e-04 0.0000000000000000e+00 0.0000000000000000e+00  3.1683994462373651e-04 0.0000000000000000e+00 0.0000000000000000e+00  5.0133785082459028e-04 0.0000000000000000e+00 0.0000000000000000e+00  7.4517663368397840e-04 0.0000000000000000e+00 0.0000000000000000e+00  1.0556381798697092e-03 0.0000000000000000e+00 0.0000000000000000e+00  1.4394185247592231e-03 0.0000000000000000e+00 0.0000000000000000e+00  1.9024727719053715e-03 0.0000000000000000e+00 0.0000000000000000e+00  2.4498204877775333e-03 0.0000000000000000e+00 0.0000000000000000e+00  3.0853001503697505e-03 0.0000000000000000e+00 0.0000000000000000e+00  3.8112585461134879e-03 0.0000000000000000e+00 0.0000000000000000e+00  4.6281578891886280e-03 0.0000000000000000e+00 0.0000000000000000e+00  5.5340799501317510e-03 0.0000000000000000e+00 0.0000000000000000e+00  6.5241027623537014e-03 0.0000000000000000e+00 0.0000000000000000e+00  7.5895217652178475e-03 0.0000000000000000e+00 0.0000000000000000e+00  8.7168839241522963e-03 0.0000000000000000e+00 0.0000000000000000e+00  9.8868010167880594e-03 0.0000000000000000e+00 0.0000000000000000e+00  1.1072507702832201e-02 0.0000000000000000e+00 0.0000000000000000e+00  1.2238132305832235e-02 0.0000000000000000e+00 0.0000000000000000e+00  1.3336654841688471e-02 0.0000000000000000e+00 0.0000000000000000e+00  1.4307539452698102e-02 0.0000000000000000e+00 0.0000000000000000e+00  1.5074048977719107e-02 0.0000000000000000e+00 0.0000000000000000e+00  1.5540279834192263e-02 0.0000000000000000e+00 0.0000000000000000e+00  1.5587997202947649e-02 0.0000000000000000e+00 0.0000000000000000e+00  1.5073404094231429e-02 0.0000000000000000e+00 0.0000000000000000e+00  1.3824041592181955e-02 0.0000000000000000e+00 0.0000000000000000e+00  1.1636086611281038e-02 0.0000000000000000e+00 0.0000000000000000e+00  8.2723788037782544e-03 0.0000000000000000e+00 0.0000000000000000e+00  3.4615560722443214e-03 0.0000000000000000e+00 0.0000000000000000e+00  -3.1013091522684817e-03 0.0000000000000000e+00 0.0000000000000000e+00  -1.1752221600992723e-02 0.0000000000000000e+00 0.0000000000000000e+00  -2.2853679719520580e-02 0.0000000000000000e+00 0.0000000000000000e+00  -3.6787929381301120e-02 0.0000000000000000e+00 0.0000000000000000e+00  -5.3948200125250291e-02 0.0000000000000000e+00 0.0000000000000000e+00  -7.4728203578997454e-02 0.0000000000000000e+00 0.0000000000000000e+00  -9.9509711426607458e-02 0.0000000000000000e+00 0.0000000000000000e+00  -1.2864520983413832e-01 0.0000000000000000e+00 0.0000000000000000e+00  0.0000000000000000e+00 2.5161221367430620e-06 0.0000000000000000e+00  -3.2943584789707774e-06 -3.2943584814420773e-06 0.0000000000000000e+00  2.6414382864174077e-06 -1.7379004724823533e-05 0.0000000000000000e+00  2.6102808962591428e-05 -3.9866786702683806e-05 0.0000000000000000e+00  7.5979300424766565e-05 -7.0979791010387710e-05 0.0000000000000000e+00  1.6093335745828816e-04 -1.1071028395344802e-04 0.0000000000000000e+00  2.8937422884411397e-04 -1.5892296955208210e-04 0.0000000000000000e+00  4.6941913960102784e-04 -2.1540942232292461e-04 0.0000000000000000e+00  7.0882093064498217e-04 -2.7990541730627742e-04 0.0000000000000000e+00  1.0148707189723523e-03 -3.5209417677846931e-04 0.0000000000000000e+00  1.3942748673598736e-03 -4.3160486320445104e-04 0.0000000000000000e+00  1.8530006285586305e-03 -5.1800945612396655e-04 0.0000000000000000e+00  2.3960818715816419e-03 -6.1081906887224826e-04 0.0000000000000000e+00  3.0273736749992066e-03 -7.0948012340937112e-04 0.0000000000000000e+00  3.7492417496294310e-03 -8.1337061871333903e-04 0.0000000000000000e+00  4.5621694838330618e-03 -9.2179668457209498e-04 0.0000000000000000e+00  5.4642618985369911e-03 -1.0339896140096904e-03 0.0000000000000000e+00  6.4506220735602868e-03 -1.1491035836828673e-03 0.0000000000000000e+00  7.5125718950514271e-03 -1.2662142937070139e-03 0.0000000000000000e+00  8.6366856582953087e-03 -1.3843187814556138e-03 0.0000000000000000e+00  9.8036027148714899e-03 -1.5023366870104058e-03 0.0000000000000000e+00  1.0986584793552223e-02 -1.6191132683172867e-03 0.0000000000000000e+00  1.2149785951590513e-02 -1.7334244800770928e-03 0.0000000000000000e+00  1.3246209743984251e-02 -1.8439844378589549e-03 0.0000000000000000e+00  1.4215340851780259e-02 -1.9494555832403574e-03 0.0000000000000000e+00  1.4980459016529462e-02 -2.0484618379650937e-03 0.0000000000000000e+00  1.5445673604351966e-02 -2.1396049751831931e-03 0.0000000000000000e+00  1.5492758956756602e-02 -2.2214843284123573e-03 0.0000000000000000e+00  1.4977924260253688e-02 -2.2927197891331541e-03 0.0000000000000000e+00  1.3728715320277035e-02 -2.3519777976880340e-03 0.0000000000000000e+00  1.1541314518674515e-02 -2.3979997064075120e-03 0.0000000000000000e+00  8.1785702993383298e-03 -2.4296315050758212e-03 0.0000000000000000e+00  3.3691349922012601e-03 -2.4458534963028504e-03 0.0000000000000000e+00  -3.1918979972942784e-03 -2.4458081805233526e-03 0.0000000000000000e+00  -1.1840508302962141e-02 -2.4288244713567865e-03 0.0000000000000000e+00  -2.2939174779880240e-02 -2.3944364482672868e-03 0.0000000000000000e+00  -3.6870156590162441e-02 -2.3423946202112255e-03 0.0000000000000000e+00  -5.4026813505353606e-02 -2.2726637853674164e-03 0.0000000000000000e+00  -7.4803429225289431e-02 -2.1853793909851456e-03 0.0000000000000000e+00  -9.9584386881800352e-02 -2.0806399530573167e-03 0.0000000000000000e+00  -1.2873491728152039e-01 -1.9577373380958605e-03 0.0000000000000000e+00  0.0000000000000000e+00 1.2513930899642407e-05 0.0000000000000000e+00  -1.7379004725414319e-05 2.6414382860733213e-06 0.0000000000000000e+00  -2.4955724227589497e-05 -2.4955724226211744e-05 0.0000000000000000e+00  -1.4835618207785173e-05 -7.0011934736509106e-05 0.0000000000000000e+00  2.1705392791153257e-05 -1.3244480396832543e-04 0.0000000000000000e+00  9.3302963407585407e-05 -2.1208056079050842e-04 0.0000000000000000e+00  2.0838094787728164e-04 -3.0863295568890283e-04 0.0000000000000000e+00  3.7507870491221534e-04 -4.2170202374757106e-04 0.0000000000000000e+00  6.0117308126559179e-04 -5.5077765170913698e-04 0.0000000000000000e+00  8.9398182554057467e-04 -6.9524069572135018e-04 0.0000000000000000e+00  1.2602420874763191e-03 -8.5436059524950732e-04 0.0000000000000000e+00  1.7059572880285922e-03 -1.0272904393974491e-03 0.0000000000000000e+00  2.2362036745315161e-03 -1.2130605587829749e-03 0.0000000000000000e+00  2.8548854102921502e-03 -1.4105714482065138e-03 0.0000000000000000e+00  3.5644242149305010e-03 -1.6185866106811842e-03 0.0000000000000000e+00  4.3653663717198908e-03 -1.8357258026523140e-03 0.0000000000000000e+00  5.2558863892191478e-03 -2.0604591232648720e-03 0.0000000000000000e+00  6.2311628657843333e-03 -2.2911023941053631e-03 0.0000000000000000e+00  7.2825983885283427e-03 -2.5258143001823420e-03 0.0000000000000000e+00  8.3968519829780933e-03 -2.7625957958312313e-03 0.0000000000000000e+00  9.5546502901629488e-03 -2.9992923135785539e-03 0.0000000000000000e+00  1.0729343098793250e-02 -3.2335993448167708e-03 0.0000000000000000e+00  1.1885171203407409e-02 -3.4630719832291026e-03 0.0000000000000000e+00  1.2975221211842766e-02 -3.6851390302164188e-03 0.0000000000000000e+00  1.3939054605175692e-02 -3.8971222483922909e-03 0.0000000000000000e+00  1.4700018989130585e-02 -4.0962613042854193e-03 0.0000000000000000e+00  1.5162279981530845e-02 -4.2797448514368093e-03 0.0000000000000000e+00  1.5207654036734634e-02 -4.4447480506792265e-03 0.0000000000000000e+00  1.4692376088508824e-02 -4.5884765852847297e-03 0.0000000000000000e+00  1.3443999522522265e-02 -4.7082168815595800e-03 0.0000000000000000e+00  1.1258694813428297e-02 -4.8013917752880312e-03 0.0000000000000000e+00  7.8992780931361663e-03 -4.8656202713001223e-03 0.0000000000000000e+00  3.0943481602937481e-03 -4.8987793541418389e-03 0.0000000000000000e+00  -3.4610776999095790e-03 -4.8990650714057626e-03 0.0000000000000000e+00  -1.2103081019923106e-02 -4.8650493499421219e-03 0.0000000000000000e+00  -2.3194275718471671e-02 -4.7957280651439223e-03 0.0000000000000000e+00  -3.7117105178209292e-02 -4.6905541903499506e-03 0.0000000000000000e+00  -5.4265194290112985e-02 -4.5494467523178924e-03 0.0000000000000000e+00  -7.5033221800767602e-02 -4.3727664020876446e-03 0.0000000000000000e+00  -9.9806044047563880e-02 -4.1612931028893949e-03 0.0000000000000000e+00  -1.2894793192891879e-01 -3.9165708048202654e-03 0.0000000000000000e+00  0.0000000000000000e+00 4.0252974944721451e-05 0.0000000000000000e+00  -3.9866786704578436e-05 2.6102808961548361e-05 0.0000000000000000e+00  -7.0011934737091119e-05 -1.4835618208850952e-05 0.0000000000000000e+00  -8.2258559702004102e-05 -8.2258559700401136e-05 0.0000000000000000e+00  -6.8018977459156135e-05 -1.7590526905236783e-04 0.0000000000000000e+00  -1.8696709000425812e-05 -2.9543317137884200e-04 0.0000000000000000e+00  7.4128589301299970e-05 -4.4036873919192719e-04 0.0000000000000000e+00  2.1861169431707013e-04 -6.1009701016964180e-04 0.0000000000000000e+00  4.2255736070939768e-04 -8.0385498368737310e-04 0.0000000000000000e+00  6.9332145691830961e-04 -1.0207243237404793e-03 0.0000000000000000e+00  1.0376891569635362e-03 -1.2596229581410092e-03 0.0000000000000000e+00  1.4617222588601067e-03 -1.5192955574947055e-03 0.0000000000000000e+00  1.9705663519693148e-03 -1.7983031196234980e-03 0.0000000000000000e+00  2.5682064088095131e-03 -2.0950120681417221e-03 0.0000000000000000e+00  3.2571566865834912e-03 -2.4075833744522722e-03 0.0000000000000000e+00  4.0380676818529450e-03 -2.7339622664277630e-03 0.0000000000000000e+00  4.9092293745180305e-03 -3.0718691274690085e-03 0.0000000000000000e+00  5.8659462656996944e-03 -3.4187922314807915e-03 0.0000000000000000e+00  6.8997560004417464e-03 -3.7719830065090897e-03 0.0000000000000000e+00  7.9974600555316414e-03 -4.1284545699222389e-03 0.0000000000000000e+00  9.1399326408366597e-03 -4.4849843269492160e-03 0.0000000000000000e+00  1.0300673425896649e-02 -4.8381214678792491e-03 0.0000000000000000e+00  1.1444072064228832e-02 -5.1842002317402320e-03 0.0000000000000000e+00  1.2523359163324721e-02 -5.5193598203728336e-03 0.0000000000000000e+00  1.3478231056296915e-02 -5.8395718383111141e-03 0.0000000000000000e+00  1.4232156399537704e-02 -6.1406760908287927e-03 0.0000000000000000e+00  1.4689403160927237e-02 -6.4184254793582989e-03 0.0000000000000000e+00  1.4731866452072395e-02 -6.6685405687253651e-03 0.0000000000000000e+00  1.4215831264369724e-02 -6.8867741364913001e-03 0.0000000000000000e+00  1.2968867809595368e-02 -7.0689856153934652e-03 0.0000000000000000e+00  1.0787125979046035e-02 -7.2112247685839825e-03 0.0000000000000000e+00  7.4333603287159641e-03 -7.3098231645309323e-03 0.0000000000000000e+00  2.6360641781169570e-03 -7.3614910331801847e-03 0.0000000000000000e+00  -3.9098967950262570e-03 -7.3634159083937585e-03 0.0000000000000000e+00  -1.2540803366254981e-02 -7.3133581527893175e-03 0.0000000000000000e+00  -2.3619516750669006e-02 -7.2097371669041285e-03 0.0000000000000000e+00  -3.7528773416320590e-02 -7.0517013681749233e-03 0.0000000000000000e+00  -5.4662527493525535e-02 -6.8391771792857140e-03 0.0000000000000000e+00  -7.5415795428820528e-02 -6.5729047790228324e-03 0.0000000000000000e+00  -1.0017371621664219e-01 -6.2545072499327805e-03 0.0000000000000000e+00  -1.2930077597787873e-01 -5.8867012618261756e-03 0.0000000000000000e+00  0.0000000000000000e+00 9.4535956779948741e-05 0.0000000000000000e+00  -7.0979791012266849e-05 7.5979300422907334e-05 0.0000000000000000e+00  -1.3244480396991653e-04 2.1705392792405853e-05 0.0000000000000000e+00  -1.7590526905685567e-04 -6.8018977455769006e-05 0.0000000000000000e+00  -1.9281677934353210e-04 -1.9281677934090245e-04 0.0000000000000000e+00  -1.7461120978943078e-04 -3.5219902265910764e-04 0.0000000000000000e+00  -1.1286853299973863e-04 -5.4551830767686894e-04 0.0000000000000000e+00  5.8440840856341198e-07 -7.7195119531093290e-04 0.0000000000000000e+00  1.7358592657069818e-04 -1.0304863250213403e-03 0.0000000000000000e+00  4.1353999473597603e-04 -1.3199124352938003e-03 0.0000000000000000e+00  7.2729472591124753e-04 -1.6388051520366338e-03 0.0000000000000000e+00  1.1209902915335669e-03 -1.9855126391634110e-03 0.0000000000000000e+00  1.5998667391644455e-03 -2.3581404741912391e-03 0.0000000000000000e+00  2.1680201112657970e-03 -2.7545362026476223e-03 0.0000000000000000e+00  2.8280926184783462e-03 -3.1722741080207478e-03 0.0000000000000000e+00  3.5808795052515957e-03 -3.6086408227188052e-03 0.0000000000000000e+00  4.4248317551628469e-03 -4.0606224951440653e-03 0.0000000000000000e+00  5.3554300627575236e-03 -4.5248943146906145e-03 0.0000000000000000e+00  6.3644017934618409e-03 -4.9978132805788252e-03 0.0000000000000000e+00  7.4387493509566272e-03 -5.4754151805477026e-03 0.0000000000000000e+00  8.5595560503026261e-03 -5.9534168197973919e-03 0.0000000000000000e+00  9.7005350730391890e-03 -6.4272246067858451e-03 0.0000000000000000e+00  1.0826289460798702e-02 -6.8919506557887584e-03 0.0000000000000000e+00  1.1890257804549602e-02 -7.3424376024214368e-03 0.0000000000000000e+00  1.2832333025879633e-02 -7.7732933394696127e-03 0.0000000000000000e+00  1.3576162351980914e-02 -8.1789368562311029e-03 0.0000000000000000e+00  1.4026167168299930e-02 -8.5536562875752949e-03 0.0000000000000000e+00  1.4064363367836320e-02 -8.8916801233646994e-03 0.0000000000000000e+00  1.3547116470970675e-02 -9.1872622560719621e-03 0.0000000000000000e+00  1.2302029479257856e-02 -9.4347811024353273e-03 0.0000000000000000e+00  1.0125230287541859e-02 -9.6288523611715443e-03 0.0000000000000000e+00  6.7793904208013570e-03 -9.7644540009311359e-03 0.0000000000000000e+00  1.9928541017612878e-03 -9.8370607724103422e-03 0.0000000000000000e+00  -4.5397314487576534e-03 -9.8427839285113589e-03 0.0000000000000000e+00  -1.3154935665280346e-02 -9.7785100620913119e-03 0.0000000000000000e+00  -2.4215975971839714e-02 -9.6420314095898487e-03 0.0000000000000000e+00  -3.8106005147059273e-02 -9.4321594266905586e-03 0.0000000000000000e+00  -5.5219441007551030e-02 -9.1488152551534221e-03 0.0000000000000000e+00  -7.5951796877202132e-02 -8.7930953111570939e-03 0.0000000000000000e+00  -1.0068873878057258e-01 -8.3673084381449461e-03 0.0000000000000000e+00  -1.2979533670673721e-01 -7.8749224049885630e-03 0.0000000000000000e+00  0.0000000000000000e+00 1.8393995776600519e-04 0.0000000000000000e+00  -1.1071028395598548e-04 1.6093335745667132e-04 0.0000000000000000e+00  -2.1208056079186603e-04 9.3302963409792354e-05 0.0000000000000000e+00  -2.9543317138228770e-04 -1.8696708998217431e-05 0.0000000000000000e+00  -3.5219902265899705e-04 -1.7461120978904375e-04 0.0000000000000000e+00  -3.7382415281130769e-04 -3.7382415281244491e-04 0.0000000000000000e+00  -3.5188476767411564e-04 -6.1552894263380636e-04 0.0000000000000000e+00  -2.7818511960314642e-04 -8.9870763150053990e-04 0.0000000000000000e+00  -1.4484664816612837e-04 -1.2221146060069591e-03 0.0000000000000000e+00  5.5592743672352363e-05 -1.5842603573642305e-03 0.0000000000000000e+00  3.3005812846604210e-04 -1.9833939665256021e-03 0.0000000000000000e+00  6.8478661622879851e-04 -2.4174842426294206e-03 0.0000000000000000e+00  1.1251362176613814e-03 -2.8841998885306987e-03 0.0000000000000000e+00  1.6553427591433319e-03 -3.3808892404141792e-03 0.0000000000000000e+00  2.2782104925317612e-03 -3.9045602351180388e-03 0.0000000000000000e+00  2.9947189378322671e-03 -4.4518613575008298e-03 0.0000000000000000e+00  3.8035250089199025e-03 -5.0190644246489724e-03 0.0000000000000000e+00  4.7003357539816921e-03 -5.6020501733043465e-03 0.0000000000000000e+00  5.6771233406258653e-03 -6.1962977284511066e-03 0.0000000000000000e+00  6.7211506198561460e-03 -6.7968791409473549e-03 0.0000000000000000e+00  7.8137732920082487e-03 -7.3984602873128965e-03 0.0000000000000000e+00  8.9289841901994474e-03 -7.9953095219387343e-03 0.0000000000000000e+00  1.0031667597220833e-02 -8.5813155574095169e-03 0.0000000000000000e+00  1.1075538238632934e-02 -9.1500161178716833e-03 0.0000000000000000e+00  1.2000752367702752e-02 -9.6946389557855325e-03 0.0000000000000000e+00  1.2731199104680570e-02 -1.0208156832452206e-02 0.0000000000000000e+00  1.3171510826334070e-02 -1.0683358017154948e-02 0.0000000000000000e+00  1.3203873398841820e-02 -1.1112933725703544e-02 0.0000000000000000e+00  1.2684770776624939e-02 -1.1489583646067626e-02 0.0000000000000000e+00  1.1441862268927652e-02 -1.1806140214614600e-02 0.0000000000000000e+00  9.2712597415360865e-03 -1.2055711521705828e-02 0.0000000000000000e+00  5.9355370828327583e-03 -1.2231841545145998e-02 0.0000000000000000e+00  1.1628516355254911e-03 -1.2328684769319791e-02 0.0000000000000000e+00  -5.3524306700091324e-03 -1.2341190162713685e-02 0.0000000000000000e+00  -1.3947256716188950e-02 -1.2265287124287028e-02 0.0000000000000000e+00  -2.4985314913328144e-02 -1.2098063737361766e-02 0.0000000000000000e+00  -3.8850315007990036e-02 -1.1837925972597703e-02 0.0000000000000000e+00  -5.5937305631794151e-02 -1.1484725394538356e-02 0.0000000000000000e+00  -7.6642488222250449e-02 -1.1039840185705245e-02 0.0000000000000000e+00  -1.0135224170635510e-01 -1.0506181499268182e-02 0.0000000000000000e+00  -1.3043225416674600e-01 -9.8880583039360238e-03 0.0000000000000000e+00  0.0000000000000000e+00 3.1683994462115649e-04 0.0000000000000000e+00  -1.5892296954997441e-04 2.8937422884566698e-04 0.0000000000000000e+00  -3.0863295568883854e-04 2.0838094787816201e-04 0.0000000000000000e+00  -4.4036873919130393e-04 7.4128589304077737e-05 0.0000000000000000e+00  -5.4551830767547314e-04 -1.1286853299879757e-04 0.0000000000000000e+00  -6.1552894263202209e-04 -3.5188476767306315e-04 0.0000000000000000e+00  -6.4196996677704356e-04 -6.4196996677746336e-04 0.0000000000000000e+00  -6.1662046009866545e-04 -9.8192809323822700e-04 0.0000000000000000e+00  -5.3155667207127990e-04 -1.3702972989077446e-03 0.0000000000000000e+00  -3.7925004504376904e-04 -1.8053295414800210e-03 0.0000000000000000e+00  -1.5268621747259760e-04 -2.2849686915841910e-03 0.0000000000000000e+00  1.5448567207790485e-04 -2.8068270361429597e-03 0.0000000000000000e+00  5.4776332844763481e-04 -3.3681605459019628e-03 0.0000000000000000e+00  1.0315493784639872e-03 -3.9658435036863263e-03 0.0000000000000000e+00  1.6088427013818255e-03 -4.5963432388758628e-03 0.0000000000000000e+00  2.2808454359674333e-03 -5.2556958427818594e-03 0.0000000000000000e+00  3.0464646028759467e-03 -5.9394838686949196e-03 0.0000000000000000e+00  3.9016835613780629e-03 -6.6428171547648638e-03 0.0000000000000000e+00  4.8387748173276991e-03 -7.3603180469764716e-03 0.0000000000000000e+00  5.8453224062848834e-03 -8.0861124402847456e-03 0.0000000000000000e+00  6.9030197713762821e-03 -8.8138281961641085e-03 0.0000000000000000e+00  7.9862085601183370e-03 -9.5366026301781301e-03 0.0000000000000000e+00  9.0601261829574651e-03 -1.0247100890639314e-02 0.0000000000000000e+00  1.0078836728920890e-02 -1.0937547163978609e-02 0.0000000000000000e+00  1.0982832641325883e-02 -1.1599770736272250e-02 0.0000000000000000e+00  1.1696315349496833e-02 -1.2225268999590573e-02 0.0000000000000000e+00  1.2124193746620061e-02 -1.2805289492338251e-02 0.0000000000000000e+00  1.2148881480932440e-02 -1.3330932963214024e-02 0.0000000000000000e+00  1.1627027861308053e-02 -1.3793279184205517e-02 0.0000000000000000e+00  1.0386381090364216e-02 -1.4183536715851014e-02 0.0000000000000000e+00  8.2230516671759259e-03 -1.4493216928173137e-02 0.0000000000000000e+00  4.8995090496025476e-03 -1.4714331173510481e-02 0.0000000000000000e+00  1.4369222991675581e-04 -1.4839607991081874e-02 0.0000000000000000e+00  -6.3503729251093884e-03 -1.4862724584262759e-02 0.