<?xml version="1.0"?>
<VTKFile type="UnstructuredGrid"  version="0.1"  >
<UnstructuredGrid>
<Piece  NumberOfPoints="1681" NumberOfCells="3200">
<Points>
<DataArray  type="Float64"  NumberOfComponents="3"  format="ascii">0 0 0  0.5 0 0  1 0 0  1.5 0 0  2 0 0  2.5 0 0  3 0 0  3.5 0 0  4 0 0  4.5 0 0  5 0 0  5.5 0 0  6 0 0  6.5 0 0  7 0 0  7.5 0 0  8 0 0  8.5 0 0  9 0 0  9.5 0 0  10 0 0  10.5 0 0  11 0 0  11.5 0 0  12 0 0  12.5 0 0  13 0 0  13.5 0 0  14 0 0  14.5 0 0  15 0 0  15.5 0 0  16 0 0  16.5 0 0  17 0 0  17.5 0 0  18 0 0  18.5 0 0  19 0 0  19.5 0 0  20 0 0  0 0.5 0  0.5 0.5 0  1 0.5 0  1.5 0.5 0  2 0.5 0  2.5 0.5 0  3 0.5 0  3.5 0.5 0  4 0.5 0  4.5 0.5 0  5 0.5 0  5.5 0.5 0  6 0.5 0  6.5 0.5 0  7 0.5 0  7.5 0.5 0  8 0.5 0  8.5 0.5 0  9 0.5 0  9.5 0.5 0  10 0.5 0  10.5 0.5 0  11 0.5 0  11.5 0.5 0  12 0.5 0  12.5 0.5 0  13 0.5 0  13.5 0.5 0  14 0.5 0  14.5 0.5 0  15 0.5 0  15.5 0.5 0  16 0.5 0  16.5 0.5 0  17 0.5 0  17.5 0.5 0  18 0.5 0  18.5 0.5 0  19 0.5 0  19.5 0.5 0  20 0.5 0  0 1 0  0.5 1 0  1 1 0  1.5 1 0  2 1 0  2.5 1 0  3 1 0  3.5 1 0  4 1 0  4.5 1 0  5 1 0  5.5 1 0  6 1 0  6.5 1 0  7 1 0  7.5 1 0  8 1 0  8.5 1 0  9 1 0  9.5 1 0  10 1 0  10.5 1 0  11 1 0  11.5 1 0  12 1 0  12.5 1 0  13 1 0  13.5 1 0  14 1 0  14.5 1 0  15 1 0  15.5 1 0  16 1 0  16.5 1 0  17 1 0  17.5 1 0  18 1 0  18.5 1 0  19 1 0  19.5 1 0  20 1 0  0 1.5 0  0.5 1.5 0  1 1.5 0  1.5 1.5 0  2 1.5 0  2.5 1.5 0  3 1.5 0  3.5 1.5 0  4 1.5 0  4.5 1.5 0  5 1.5 0  5.5 1.5 0  6 1.5 0  6.5 1.5 0  7 1.5 0  7.5 1.5 0  8 1.5 0  8.5 1.5 0  9 1.5 0  9.5 1.5 0  10 1.5 0  10.5 1.5 0  11 1.5 0  11.5 1.5 0  12 1.5 0  12.5 1.5 0  13 1.5 0  13.5 1.5 0  14 1.5 0  14.5 1.5 0  15 1.5 0  15.5 1.5 0  16 1.5 0  16.5 1.5 0  17 1.5 0  17.5 1.5 0  18 1.5 0  18.5 1.5 0  19 1.5 0  19.5 1.5 0  20 1.5 0  0 2 0  0.5 2 0  1 2 0  1.5 2 0  2 2 0  2.5 2 0  3 2 0  3.5 2 0  4 2 0  4.5 2 0  5 2 0  5.5 2 0  6 2 0  6.5 2 0  7 2 0  7.5 2 0  8 2 0  8.5 2 0  9 2 0  9.5 2 0  10 2 0  10.5 2 0  11 2 0  11.5 2 0  12 2 0  12.5 2 0  13 2 0  13.5 2 0  14 2 0  14.5 2 0  15 2 0  15.5 2 0  16 2 0  16.5 2 0  17 2 0  17.5 2 0  18 2 0  18.5 2 0  19 2 0  19.5 2 0  20 2 0  0 2.5 0  0.5 2.5 0  1 2.5 0  1.5 2.5 0  2 2.5 0  2.5 2.5 0  3 2.5 0  3.5 2.5 0  4 2.5 0  4.5 2.5 0  5 2.5 0  5.5 2.5 0  6 2.5 0  6.5 2.5 0  7 2.5 0  7.5 2.5 0  8 2.5 0  8.5 2.5 0  9 2.5 0  9.5 2.5 0  10 2.5 0  10.5 2.5 0  11 2.5 0  11.5 2.5 0  12 2.5 0  12.5 2.5 0  13 2.5 0  13.5 2.5 0  14 2.5 0  14.5 2.5 0  15 2.5 0  15.5 2.5 0  16 2.5 0  16.5 2.5 0  17 2.5 0  17.5 2.5 0  18 2.5 0  18.5 2.5 0  19 2.5 0  19.5 2.5 0  20 2.5 0  0 3 0  0.5 3 0  1 3 0  1.5 3 0  2 3 0  2.5 3 0  3 3 0  3.5 3 0  4 3 0  4.5 3 0  5 3 0  5.5 3 0  6 3 0  6.5 3 0  7 3 0  7.5 3 0  8 3 0  8.5 3 0  9 3 0  9.5 3 0  10 3 0  10.5 3 0  11 3 0  11.5 3 0  12 3 0  12.5 3 0  13 3 0  13.5 3 0  14 3 0  14.5 3 0  15 3 0  15.5 3 0  16 3 0  16.5 3 0  17 3 0  17.5 3 0  18 3 0  18.5 3 0  19 3 0  19.5 3 0  20 3 0  0 3.5 0  0.5 3.5 0  1 3.5 0  1.5 3.5 0  2 3.5 0  2.5 3.5 0  3 3.5 0  3.5 3.5 0  4 3.5 0  4.5 3.5 0  5 3.5 0  5.5 3.5 0  6 3.5 0  6.5 3.5 0  7 3.5 0  7.5 3.5 0  8 3.5 0  8.5 3.5 0  9 3.5 0  9.5 3.5 0  10 3.5 0  10.5 3.5 0  11 3.5 0  11.5 3.5 0  12 3.5 0  12.5 3.5 0  13 3.5 0  13.5 3.5 0  14 3.5 0  14.5 3.5 0  15 3.5 0  15.5 3.5 0  16 3.5 0  16.5 3.5 0  17 3.5 0  17.5 3.5 0  18 3.5 0  18.5 3.5 0  19 3.5 0  19.5 3.5 0  20 3.5 0  0 4 0  0.5 4 0  1 4 0  1.5 4 0  2 4 0  2.5 4 0  3 4 0  3.5 4 0  4 4 0  4.5 4 0  5 4 0  5.5 4 0  6 4 0  6.5 4 0  7 4 0  7.5 4 0  8 4 0  8.5 4 0  9 4 0  9.5 4 0  10 4 0  10.5 4 0  11 4 0  11.5 4 0  12 4 0  12.5 4 0  13 4 0  13.5 4 0  14 4 0  14.5 4 0  15 4 0  15.5 4 0  16 4 0  16.5 4 0  17 4 0  17.5 4 0  18 4 0  18.5 4 0  19 4 0  19.5 4 0  20 4 0  0 4.5 0  0.5 4.5 0  1 4.5 0  1.5 4.5 0  2 4.5 0  2.5 4.5 0  3 4.5 0  3.5 4.5 0  4 4.5 0  4.5 4.5 0  5 4.5 0  5.5 4.5 0  6 4.5 0  6.5 4.5 0  7 4.5 0  7.5 4.5 0  8 4.5 0  8.5 4.5 0  9 4.5 0  9.5 4.5 0  10 4.5 0  10.5 4.5 0  11 4.5 0  11.5 4.5 0  12 4.5 0  12.5 4.5 0  13 4.5 0  13.5 4.5 0  14 4.5 0  14.5 4.5 0  15 4.5 0  15.5 4.5 0  16 4.5 0  16.5 4.5 0  17 4.5 0  17.5 4.5 0  18 4.5 0  18.5 4.5 0  19 4.5 0  19.5 4.5 0  20 4.5 0  0 5 0  0.5 5 0  1 5 0  1.5 5 0  2 5 0  2.5 5 0  3 5 0  3.5 5 0  4 5 0  4.5 5 0  5 5 0  5.5 5 0  6 5 0  6.5 5 0  7 5 0  7.5 5 0  8 5 0  8.5 5 0  9 5 0  9.5 5 0  10 5 0  10.5 5 0  11 5 0  11.5 5 0  12 5 0  12.5 5 0  13 5 0  13.5 5 0  14 5 0  14.5 5 0  15 5 0  15.5 5 0  16 5 0  16.5 5 0  17 5 0  17.5 5 0  18 5 0  18.5 5 0  19 5 0  19.5 5 0  20 5 0  0 5.5 0  0.5 5.5 0  1 5.5 0  1.5 5.5 0  2 5.5 0  2.5 5.5 0  3 5.5 0  3.5 5.5 0  4 5.5 0  4.5 5.5 0  5 5.5 0  5.5 5.5 0  6 5.5 0  6.5 5.5 0  7 5.5 0  7.5 5.5 0  8 5.5 0  8.5 5.5 0  9 5.5 0  9.5 5.5 0  10 5.5 0  10.5 5.5 0  11 5.5 0  11.5 5.5 0  12 5.5 0  12.5 5.5 0  13 5.5 0  13.5 5.5 0  14 5.5 0  14.5 5.5 0  15 5.5 0  15.5 5.5 0  16 5.5 0  16.5 5.5 0  17 5.5 0  17.5 5.5 0  18 5.5 0  18.5 5.5 0  19 5.5 0  19.5 5.5 0  20 5.5 0  0 6 0  0.5 6 0  1 6 0  1.5 6 0  2 6 0  2.5 6 0  3 6 0  3.5 6 0  4 6 0  4.5 6 0  5 6 0  5.5 6 0  6 6 0  6.5 6 0  7 6 0  7.5 6 0  8 6 0  8.5 6 0  9 6 0  9.5 6 0  10 6 0  10.5 6 0  11 6 0  11.5 6 0  12 6 0  12.5 6 0  13 6 0  13.5 6 0  14 6 0  14.5 6 0  15 6 0  15.5 6 0  16 6 0  16.5 6 0  17 6 0  17.5 6 0  18 6 0  18.5 6 0  19 6 0  19.5 6 0  20 6 0  0 6.5 0  0.5 6.5 0  1 6.5 0  1.5 6.5 0  2 6.5 0  2.5 6.5 0  3 6.5 0  3.5 6.5 0  4 6.5 0  4.5 6.5 0  5 6.5 0  5.5 6.5 0  6 6.5 0  6.5 6.5 0  7 6.5 0  7.5 6.5 0  8 6.5 0  8.5 6.5 0  9 6.5 0  9.5 6.5 0  10 6.5 0  10.5 6.5 0  11 6.5 0  11.5 6.5 0  12 6.5 0  12.5 6.5 0  13 6.5 0  13.5 6.5 0  14 6.5 0  14.5 6.5 0  15 6.5 0  15.5 6.5 0  16 6.5 0  16.5 6.5 0  17 6.5 0  17.5 6.5 0  18 6.5 0  18.5 6.5 0  19 6.5 0  19.5 6.5 0  20 6.5 0  0 7 0  0.5 7 0  1 7 0  1.5 7 0  2 7 0  2.5 7 0  3 7 0  3.5 7 0  4 7 0  4.5 7 0  5 7 0  5.5 7 0  6 7 0  6.5 7 0  7 7 0  7.5 7 0  8 7 0  8.5 7 0  9 7 0  9.5 7 0  10 7 0  10.5 7 0  11 7 0  11.5 7 0  12 7 0  12.5 7 0  13 7 0  13.5 7 0  14 7 0  14.5 7 0  15 7 0  15.5 7 0  16 7 0  16.5 7 0  17 7 0  17.5 7 0  18 7 0  18.5 7 0  19 7 0  19.5 7 0  20 7 0  0 7.5 0  0.5 7.5 0  1 7.5 0  1.5 7.5 0  2 7.5 0  2.5 7.5 0  3 7.5 0  3.5 7.5 0  4 7.5 0  4.5 7.5 0  5 7.5 0  5.5 7.5 0  6 7.5 0  6.5 7.5 0  7 7.5 0  7.5 7.5 0  8 7.5 0  8.5 7.5 0  9 7.5 0  9.5 7.5 0  10 7.5 0  10.5 7.5 0  11 7.5 0  11.5 7.5 0  12 7.5 0  12.5 7.5 0  13 7.5 0  13.5 7.5 0  14 7.5 0  14.5 7.5 0  15 7.5 0  15.5 7.5 0  16 7.5 0  16.5 7.5 0  17 7.5 0  17.5 7.5 0  18 7.5 0  18.5 7.5 0  19 7.5 0  19.5 7.5 0  20 7.5 0  0 8 0  0.5 8 0  1 8 0  1.5 8 0  2 8 0  2.5 8 0  3 8 0  3.5 8 0  4 8 0  4.5 8 0  5 8 0  5.5 8 0  6 8 0  6.5 8 0  7 8 0  7.5 8 0  8 8 0  8.5 8 0  9 8 0  9.5 8 0  10 8 0  10.5 8 0  11 8 0  11.5 8 0  12 8 0  12.5 8 0  13 8 0  13.5 8 0  14 8 0  14.5 8 0  15 8 0  15.5 8 0  16 8 0  16.5 8 0  17 8 0  17.5 8 0  18 8 0  18.5 8 0  19 8 0  19.5 8 0  20 8 0  0 8.5 0  0.5 8.5 0  1 8.5 0  1.5 8.5 0  2 8.5 0  2.5 8.5 0  3 8.5 0  3.5 8.5 0  4 8.5 0  4.5 8.5 0  5 8.5 0  5.5 8.5 0  6 8.5 0  6.5 8.5 0  7 8.5 0  7.5 8.5 0  8 8.5 0  8.5 8.5 0  9 8.5 0  9.5 8.5 0  10 8.5 0  10.5 8.5 0  11 8.5 0  11.5 8.5 0  12 8.5 0  12.5 8.5 0  13 8.5 0  13.5 8.5 0  14 8.5 0  14.5 8.5 0  15 8.5 0  15.5 8.5 0  16 8.5 0  16.5 8.5 0  17 8.5 0  17.5 8.5 0  18 8.5 0  18.5 8.5 0  19 8.5 0  19.5 8.5 0  20 8.5 0  0 9 0  0.5 9 0  1 9 0  1.5 9 0  2 9 0  2.5 9 0  3 9 0  3.5 9 0  4 9 0  4.5 9 0  5 9 0  5.5 9 0  6 9 0  6.5 9 0  7 9 0  7.5 9 0  8 9 0  8.5 9 0  9 9 0  9.5 9 0  10 9 0  10.5 9 0  11 9 0  11.5 9 0  12 9 0  12.5 9 0  13 9 0  13.5 9 0  14 9 0  14.5 9 0  15 9 0  15.5 9 0  16 9 0  16.5 9 0  17 9 0  17.5 9 0  18 9 0  18.5 9 0  19 9 0  19.5 9 0  20 9 0  0 9.5 0  0.5 9.5 0  1 9.5 0  1.5 9.5 0  2 9.5 0  2.5 9.5 0  3 9.5 0  3.5 9.5 0  4 9.5 0  4.5 9.5 0  5 9.5 0  5.5 9.5 0  6 9.5 0  6.5 9.5 0  7 9.5 0  7.5 9.5 0  8 9.5 0  8.5 9.5 0  9 9.5 0  9.5 9.5 0  10 9.5 0  10.5 9.5 0  11 9.5 0  11.5 9.5 0  12 9.5 0  12.5 9.5 0  13 9.5 0  13.5 9.5 0  14 9.5 0  14.5 9.5 0  15 9.5 0  15.5 9.5 0  16 9.5 0  16.5 9.5 0  17 9.5 0  17.5 9.5 0  18 9.5 0  18.5 9.5 0  19 9.5 0  19.5 9.5 0  20 9.5 0  0 10 0  0.5 10 0  1 10 0  1.5 10 0  2 10 0  2.5 10 0  3 10 0  3.5 10 0  4 10 0  4.5 10 0  5 10 0  5.5 10 0  6 10 0  6.5 10 0  7 10 0  7.5 10 0  8 10 0  8.5 10 0  9 10 0  9.5 10 0  10 10 0  10.5 10 0  11 10 0  11.5 10 0  12 10 0  12.5 10 0  13 10 0  13.5 10 0  14 10 0  14.5 10 0  15 10 0  15.5 10 0  16 10 0  16.5 10 0  17 10 0  17.5 10 0  18 10 0  18.5 10 0  19 10 0  19.5 10 0  20 10 0  0 10.5 0  0.5 10.5 0  1 10.5 0  1.5 10.5 0  2 10.5 0  2.5 10.5 0  3 10.5 0  3.5 10.5 0  4 10.5 0  4.5 10.5 0  5 10.5 0  5.5 10.5 0  6 10.5 0  6.5 10.5 0  7 10.5 0  7.5 10.5 0  8 10.5 0  8.5 10.5 0  9 10.5 0  9.5 10.5 0  10 10.5 0  10.5 10.5 0  11 10.5 0  11.5 10.5 0  12 10.5 0  12.5 10.5 0  13 10.5 0  13.5 10.5 0  14 10.5 0  14.5 10.5 0  15 10.5 0  15.5 10.5 0  16 10.5 0  16.5 10.5 0  17 10.5 0  17.5 10.5 0  18 10.5 0  18.5 10.5 0  19 10.5 0  19.5 10.5 0  20 10.5 0  0 11 0  0.5 11 0  1 11 0  1.5 11 0  2 11 0  2.5 11 0  3 11 0  3.5 11 0  4 11 0  4.5 11 0  5 11 0  5.5 11 0  6 11 0  6.5 11 0  7 11 0  7.5 11 0  8 11 0  8.5 11 0  9 11 0  9.5 11 0  10 11 0  10.5 11 0  11 11 0  11.5 11 0  12 11 0  12.5 11 0  13 11 0  13.5 11 0  14 11 0  14.5 11 0  15 11 0  15.5 11 0  16 11 0  16.5 11 0  17 11 0  17.5 11 0  18 11 0  18.5 11 0  19 11 0  19.5 11 0  20 11 0  0 11.5 0  0.5 11.5 0  1 11.5 0  1.5 11.5 0  2 11.5 0  2.5 11.5 0  3 11.5 0  3.5 11.5 0  4 11.5 0  4.5 11.5 0  5 11.5 0  5.5 11.5 0  6 11.5 0  6.5 11.5 0  7 11.5 0  7.5 11.5 0  8 11.5 0  8.5 11.5 0  9 11.5 0  9.5 11.5 0  10 11.5 0  10.5 11.5 0  11 11.5 0  11.5 11.5 0  12 11.5 0  12.5 11.5 0  13 11.5 0  13.5 11.5 0  14 11.5 0  14.5 11.5 0  15 11.5 0  15.5 11.5 0  16 11.5 0  16.5 11.5 0  17 11.5 0  17.5 11.5 0  18 11.5 0  18.5 11.5 0  19 11.5 0  19.5 11.5 0  20 11.5 0  0 12 0  0.5 12 0  1 12 0  1.5 12 0  2 12 0  2.5 12 0  3 12 0  3.5 12 0  4 12 0  4.5 12 0  5 12 0  5.5 12 0  6 12 0  6.5 12 0  7 12 0  7.5 12 0  8 12 0  8.5 12 0  9 12 0  9.5 12 0  10 12 0  10.5 12 0  11 12 0  11.5 12 0  12 12 0  12.5 12 0  13 12 0  13.5 12 0  14 12 0  14.5 12 0  
[...]
<PointData  Vectors="f_5623-0"> 
<DataArray  type="Float64"  Name="f_5623-0"  NumberOfComponents="3" format="ascii">0.0000000000000000e+00 0.0000000000000000e+00 0.0000000000000000e+00  3.4347895636889460e-08 0.0000000000000000e+00 0.0000000000000000e+00  2.0925573482928043e-07 0.0000000000000000e+00 0.0000000000000000e+00  6.8347076910743983e-07 0.0000000000000000e+00 0.0000000000000000e+00  1.6045057501079547e-06 0.0000000000000000e+00 0.0000000000000000e+00  3.1180149025657512e-06 0.0000000000000000e+00 0.0000000000000000e+00  5.3672696630746566e-06 0.0000000000000000e+00 0.0000000000000000e+00  8.4922525881236748e-06 0.0000000000000000e+00 0.0000000000000000e+00  1.2628814981103731e-05 0.0000000000000000e+00 0.0000000000000000e+00  1.7907828807579672e-05 0.0000000000000000e+00 0.0000000000000000e+00  2.4454292528174566e-05 0.0000000000000000e+00 0.0000000000000000e+00  3.2386375092211493e-05 0.0000000000000000e+00 0.0000000000000000e+00  4.1814392353281778e-05 0.0000000000000000e+00 0.0000000000000000e+00  5.2839714799127725e-05 0.0000000000000000e+00 0.0000000000000000e+00  6.5553608858372872e-05 0.0000000000000000e+00 0.0000000000000000e+00  8.0036017265225183e-05 0.0000000000000000e+00 0.0000000000000000e+00  9.6354287249930730e-05 0.0000000000000000e+00 0.0000000000000000e+00  1.1456185885889034e-04 0.0000000000000000e+00 0.0000000000000000e+00  1.3469692933128357e-04 0.0000000000000000e+00 0.0000000000000000e+00  1.5678111272841592e-04 0.0000000000000000e+00 0.0000000000000000e+00  1.8081811660954701e-04 0.0000000000000000e+00 0.0000000000000000e+00  2.0679245831946151e-04 0.0000000000000000e+00 0.0000000000000000e+00  2.3466824023756034e-04 0.0000000000000000e+00 0.0000000000000000e+00  2.6438799163569618e-04 0.0000000000000000e+00 0.0000000000000000e+00  2.9587155383356339e-04 0.0000000000000000e+00 0.0000000000000000e+00  3.2901490991305872e-04 0.0000000000000000e+00 0.0000000000000000e+00  3.6368867892306618e-04 0.0000000000000000e+00 0.0000000000000000e+00  3.9973555561968375e-04 0.0000000000000000e+00 0.0000000000000000e+00  4.3696490349913854e-04 0.0000000000000000e+00 0.0000000000000000e+00  4.7514005938414190e-04 0.0000000000000000e+00 0.0000000000000000e+00  5.1394732543094939e-04 0.0000000000000000e+00 0.0000000000000000e+00  5.5291922410733352e-04 0.0000000000000000e+00 0.0000000000000000e+00  5.9124376621718137e-04 0.0000000000000000e+00 0.0000000000000000e+00  6.2729044834777142e-04 0.0000000000000000e+00 0.0000000000000000e+00  6.5743694612272797e-04 0.0000000000000000e+00 0.0000000000000000e+00  6.7319321516336259e-04 0.0000000000000000e+00 0.0000000000000000e+00  6.5429006356851165e-04 0.0000000000000000e+00 0.0000000000000000e+00  5.5268226905849248e-04 0.0000000000000000e+00 0.0000000000000000e+00  2.5809144410730660e-04 0.0000000000000000e+00 0.0000000000000000e+00  -4.6677609712778457e-04 0.0000000000000000e+00 0.0000000000000000e+00  -2.0838137218766786e-03 0.0000000000000000e+00 0.0000000000000000e+00  0.0000000000000000e+00 3.4347893971824452e-08 0.0000000000000000e+00  -5.2532697465223626e-08 -5.2532697443680037e-08 0.0000000000000000e+00  5.0155200219095282e-08 -2.8077740895636814e-07 0.0000000000000000e+00  4.5053991478599815e-07 -6.5415234684793552e-07 0.0000000000000000e+00  1.2970758303017460e-06 -1.1738256612793812e-06 0.0000000000000000e+00  2.7360059961346163e-06 -1.8382602129550046e-06 0.0000000000000000e+00  4.9107799491161897e-06 -2.6445809352022851e-06 0.0000000000000000e+00  7.9614741883023483e-06 -3.5890305446784629e-06 0.0000000000000000e+00  1.2024046645218477e-05 -4.6670400828781791e-06 0.0000000000000000e+00  1.7229509971487505e-05 -5.8731905106163160e-06 0.0000000000000000e+00  2.3703041790626806e-05 -7.2011477911324876e-06 0.0000000000000000e+00  3.1563030277722843e-05 -8.6435920732730640e-06 0.0000000000000000e+00  4.0920051641299819e-05 -1.0192146313617668e-05 0.0000000000000000e+00  5.1875778408424314e-05 -1.1837306809502631e-05 0.0000000000000000e+00  6.4521820347403913e-05 -1.3568378117660510e-05 0.0000000000000000e+00  7.8938503185864133e-05 -1.5373415285683161e-05 0.0000000000000000e+00  9.5193593622062376e-05 -1.7239176673563768e-05 0.0000000000000000e+00  1.1334098279536061e-04 -1.9151090954171471e-05 0.0000000000000000e+00  1.3341934401120585e-04 -2.1093241944068251e-05 0.0000000000000000e+00  1.5545078399258674e-04 -2.3048374616299102e-05 0.0000000000000000e+00  1.7943950968049886e-04 -2.4997925056061982e-05 0.0000000000000000e+00  2.0537053371302481e-04 -2.6922075714455817e-05 0.0000000000000000e+00  2.3320843907455197e-04 -2.8799834927686369e-05 0.0000000000000000e+00  2.6289621274424202e-04 -3.0609135452662004e-05 0.0000000000000000e+00  2.9435412903076836e-04 -3.2326939599502683e-05 0.0000000000000000e+00  3.2747859143164929e-04 -3.3929326034997550e-05 0.0000000000000000e+00  3.6214066694617504e-04 -3.5391511552932583e-05 0.0000000000000000e+00  3.9818361991628761e-04 -3.6687722793662192e-05 0.0000000000000000e+00  4.3541770027421509e-04 -3.7790766626656595e-05 0.0000000000000000e+00  4.7360782508784735e-04 -3.8671038001413739e-05 0.0000000000000000e+00  5.1244325153790250e-04 -3.9294540467232614e-05 0.0000000000000000e+00  5.5146194626882940e-04 -3.9619314308907475e-05 0.0000000000000000e+00  5.8986133130580713e-04 -3.9589691269561818e-05 0.0000000000000000e+00  6.2602509404869049e-04 -3.9128790666308747e-05 0.0000000000000000e+00  6.5634582058806507e-04 -3.8133692047505086e-05 0.0000000000000000e+00  6.7232775558692323e-04 -3.6488766835615447e-05 0.0000000000000000e+00  6.5361027935985014e-04 -3.4133581861150638e-05 0.0000000000000000e+00  5.5183873721470500e-04 -3.1233998289879585e-05 0.0000000000000000e+00  2.5610188939769482e-04 -2.8406934864349720e-05 0.0000000000000000e+00  -4.7143413361254276e-04 -2.6473105748464905e-05 0.0000000000000000e+00  -2.0884771566896695e-03 -2.3959419888368973e-05 0.0000000000000000e+00  0.0000000000000000e+00 2.0925573515029871e-07 0.0000000000000000e+00  -2.8077741006770412e-07 5.0155200826331832e-08 0.0000000000000000e+00  -4.0320611797369404e-07 -4.0320611790882577e-07 0.0000000000000000e+00  -2.2693006798734974e-07 -1.1510934825908325e-06 0.0000000000000000e+00  3.9554597367817928e-07 -2.1918687697220734e-06 0.0000000000000000e+00  1.6104234106089537e-06 -3.5217408855895956e-06 0.0000000000000000e+00  3.5613627954105587e-06 -5.1351232126068484e-06 0.0000000000000000e+00  6.3887121488460791e-06 -7.0247376767316320e-06 0.0000000000000000e+00  1.0228761048129751e-05 -9.1816202650257435e-06 0.0000000000000000e+00  1.5212938831881483e-05 -1.1595058653407662e-05 0.0000000000000000e+00  2.1466943797254824e-05 -1.4252487432287260e-05 0.0000000000000000e+00  2.9109800846998500e-05 -1.7139360825358873e-05 0.0000000000000000e+00  3.8252846198014287e-05 -2.0239015888627901e-05 0.0000000000000000e+00  4.8998639035948236e-05 -2.3532534982312903e-05 0.0000000000000000e+00  6.1439802093422137e-05 -2.6998614674907081e-05 0.0000000000000000e+00  7.5657795940179770e-05 -3.0613448009537190e-05 0.0000000000000000e+00  9.1721635083943766e-05 -3.4350627245879356e-05 0.0000000000000000e+00  1.0968655762930720e-04 -3.8181074563801645e-05 0.0000000000000000e+00  1.2959266406835195e-04 -4.2073008251376113e-05 0.0000000000000000e+00  1.5146354456116429e-04 -4.5991951534176722e-05 0.0000000000000000e+00  1.7530491736608773e-04 -4.9900790049459170e-05 0.0000000000000000e+00  2.0110330297941323e-04 -5.3759881726576671e-05 0.0000000000000000e+00  2.2882475735605878e-04 -5.7527218781285751e-05 0.0000000000000000e+00  2.5841367914139707e-04 -6.1158634824849385e-05 0.0000000000000000e+00  2.8979168069046311e-04 -6.4608039087747120e-05 0.0000000000000000e+00  3.2285644734139131e-04 -6.7827641930776167e-05 0.0000000000000000e+00  3.5748034562020230e-04 -7.0768107173380899e-05 0.0000000000000000e+00  3.9350813173153409e-04 -7.3378521913891040e-05 0.0000000000000000e+00  4.3075208381288964e-04 -7.5606007819008239e-05 0.0000000000000000e+00  4.6898028803882107e-04 -7.7394711553945103e-05 0.0000000000000000e+00  5.0788724776137158e-04 -7.8683839824945120e-05 0.0000000000000000e+00  5.4701939468217782e-04 -7.9404476314310884e-05 0.0000000000000000e+00  5.8558631352174744e-04 -7.9475504589847398e-05 0.0000000000000000e+00  6.2198436479382353e-04 -7.8800912131210302e-05 0.0000000000000000e+00  6.5260452401542587e-04 -7.7275501130805806e-05 0.0000000000000000e+00  6.6889263342184290e-04 -7.4814393634257804e-05 0.0000000000000000e+00  6.5028399805309208e-04 -7.1427809366742293e-05 0.0000000000000000e+00  5.4796527706274566e-04 -6.7337352246013373e-05 0.0000000000000000e+00  2.5040066172961573e-04 -6.3002468883787270e-05 0.0000000000000000e+00  -4.8013043387547342e-04 -5.8639374903684092e-05 0.0000000000000000e+00  -2.0977569514317178e-03 -5.2673577844428111e-05 0.0000000000000000e+00  0.0000000000000000e+00 6.8347077072609131e-07 0.0000000000000000e+00  -6.5415234630900424e-07 4.5053991512801645e-07 0.0000000000000000e+00  -1.1510934814658478e-06 -2.2693006929141490e-07 0.0000000000000000e+00  -1.3481525927853186e-06 -1.3481525948748591e-06 0.0000000000000000e+00  -1.0987049924453721e-06 -2.9095188773308092e-06 0.0000000000000000e+00  -2.5663371309925745e-07 -4.9049314589853058e-06 0.0000000000000000e+00  1.3218955199864289e-06 -7.3259055463756600e-06 0.0000000000000000e+00  3.7775770650799749e-06 -1.0161597268666296e-05 0.0000000000000000e+00  7.2472050946671679e-06 -1.3398720095232760e-05 0.0000000000000000e+00  1.1862879416246262e-05 -1.7021400219478833e-05 0.0000000000000000e+00  1.7751149689488432e-05 -2.1010998525436344e-05 0.0000000000000000e+00  2.5032087832139074e-05 -2.5345912432247798e-05 0.0000000000000000e+00  3.3818284007995494e-05 -3.0001367256501390e-05 0.0000000000000000e+00  4.4213764585508701e-05 -3.4949206321063756e-05 0.0000000000000000e+00  5.6312833107989949e-05 -4.0157689439209988e-05 0.0000000000000000e+00  7.0198838221160038e-05 -4.5591310019534754e-05 0.0000000000000000e+00  8.5942875851926031e-05 -5.1210641746262182e-05 0.0000000000000000e+00  1.0360243667551773e-04 -5.6972226387744782e-05 0.0000000000000000e+00  1.2322001400778970e-04 -6.2828514503517416e-05 0.0000000000000000e+00  1.4482169146123360e-04 -6.8727870560321023e-05 0.0000000000000000e+00  1.6841573372592747e-04 -7.4614652605006602e-05 0.0000000000000000e+00  1.9399120683019720e-04 -8.0429374042114920e-05 0.0000000000000000e+00  2.2151665472805495e-04 -8.6108950346172779e-05 0.0000000000000000e+00  2.5093885318527170e-04 -9.1587025968365847e-05 0.0000000000000000e+00  2.8218164070164381e-04 -9.6794364978419647e-05 0.0000000000000000e+00  3.1514476666510505e-04 -1.0165927139623362e-04 0.0000000000000000e+00  3.4970254103759241e-04 -1.0610798006479149e-04 0.0000000000000000e+00  3.8570166937878055e-04 -1.1006492530917798e-04 0.0000000000000000e+00  4.2295663214861448e-04 -1.1345275672349905e-04 0.0000000000000000e+00  4.6123834925245415e-04 -1.1619194827796448e-04 0.0000000000000000e+00  5.0024519731249313e-04 -1.1819989558983813e-04 0.0000000000000000e+00  5.3952851315039842e-04 -1.1938965566688613e-04 0.0000000000000000e+00  5.7830208655690427e-04 -1.1966923369942789e-04 0.0000000000000000e+00  6.1495922618631750e-04 -1.1894397642560061e-04 0.0000000000000000e+00  6.4586337427343006e-04 -1.1712736254106181e-04 0.0000000000000000e+00  6.6237348240094271e-04 -1.1416768872749839e-04 0.0000000000000000e+00  6.4373038972067480e-04 -1.1009276540025594e-04 0.0000000000000000e+00  5.4081141211233404e-04 -1.0504524229488880e-04 0.0000000000000000e+00  2.4185671801473928e-04 -9.9213933954624278e-05 0.0000000000000000e+00  -4.9034330246922378e-04 -9.2526914438967664e-05 0.0000000000000000e+00  -2.1077940827874176e-03 -8.4278408580567296e-05 0.0000000000000000e+00  0.0000000000000000e+00 1.6045057499356542e-06 0.0000000000000000e+00  -1.1738256607285161e-06 1.2970758292825945e-06 0.0000000000000000e+00  -2.1918687678321354e-06 3.9554597264378079e-07 0.0000000000000000e+00  -2.9095188759226516e-06 -1.0987049937157574e-06 0.0000000000000000e+00  -3.1804544882012092e-06 -3.1804544895863114e-06 0.0000000000000000e+00  -2.8585861865331011e-06 -5.8414513844626652e-06 0.0000000000000000e+00  -1.7998443582470951e-06 -9.0704665381055295e-06 0.0000000000000000e+00  1.3690848492836085e-07 -1.2853237426334532e-05 0.0000000000000000e+00  3.0891243398320448e-06 -1.7172316485444921e-05 0.0000000000000000e+00  7.1897981704494002e-06 -2.2006858666990923e-05 0.0000000000000000e+00  1.2566634935178479e-05 -2.7332370116176495e-05 0.0000000000000000e+00  1.9341141873635415e-05 -3.3120432513373255e-05 0.0000000000000000e+00  2.7627639825696478e-05 -3.9338414517283699e-05 0.0000000000000000e+00  3.7532190404277766e-05 -4.5949181413105990e-05 0.0000000000000000e+00  4.9151438537528839e-05 -5.2910814881499334e-05 0.0000000000000000e+00  6.2571372854090587e-05 -6.0176356104630079e-05 0.0000000000000000e+00  7.7866009844250187e-05 -6.7693586762744801e-05 0.0000000000000000e+00  9.5096011672808742e-05 -7.5404863588340363e-05 0.0000000000000000e+00  1.1430725190185298e-04 -8.3247022868710219e-05 0.0000000000000000e+00  1.3552934815165747e-04 -9.1151371296088082e-05 0.0000000000000000e+00  1.5877418550053034e-04 -9.9043778474038345e-05 0.0000000000000000e+00  1.8403445860034801e-04 -1.0684488389251119e-04 0.0000000000000000e+00  2.1128226260726498e-04 -1.1447042660204420e-04 0.0000000000000000e+00  2.4046775941920771e-04 -1.2183169855243856e-04 0.0000000000000000e+00  2.7151792735517305e-04 -1.2883611199233420e-04 0.0000000000000000e+00  3.0433534622836768e-04 -1.3538785668692216e-04 0.0000000000000000e+00  3.3879681654052257e-04 -1.4138860468709122e-04 0.0000000000000000e+00  3.7475120926798168e-04 -1.4673820138578361e-04 0.0000000000000000e+00  4.1201490216747586e-04 -1.5133527109469183e-04 0.0000000000000000e+00  4.5036048776533189e-04 -1.5507768605809715e-04 0.0000000000000000e+00  4.8948762722418506e-04 -1.5786294862747490e-04 0.0000000000000000e+00  5.2894768366384406e-04 -1.5958880462888211e-04 0.0000000000000000e+00  5.6795056394603409e-04 -1.6015495580869150e-04 0.0000000000000000e+00  6.0487547954373279e-04 -1.5946759953006055e-04 0.0000000000000000e+00  6.3604942971391134e-04 -1.5744926193927747e-04 0.0000000000000000e+00  6.5275530196129145e-04 -1.5405529450772336e-04 0.0000000000000000e+00  6.3410859851067102e-04 -1.4929164084579127e-04 0.0000000000000000e+00  5.3085073283441265e-04 -1.4321239025601656e-04 0.0000000000000000e+00  2.3123252114858229e-04 -1.3586203765012707e-04 0.0000000000000000e+00  -5.0151640021925045e-04 -1.2718419421213104e-04 0.0000000000000000e+00  -2.1185091130839664e-03 -1.1718771733604140e-04 0.0000000000000000e+00  0.0000000000000000e+00 3.1180149020520630e-06 0.0000000000000000e+00  -1.8382602137167589e-06 2.7360059955527334e-06 0.0000000000000000e+00  -3.5217408848127262e-06 1.6104234090398620e-06 0.0000000000000000e+00  -4.9049314577187637e-06 -2.5663371447832608e-07 0.0000000000000000e+00  -5.8414513829756701e-06 -2.8585861877916827e-06 0.0000000000000000e+00  -6.1852042224604919e-06 -6.1852042231673011e-06 0.0000000000000000e+00  -5.7918562263575908e-06 -1.0222701067211614e-05 0.0000000000000000e+00  -4.5197523090908282e-06 -1.4953613997500802e-05 0.0000000000000000e+00  -2.2306506552299867e-06 -2.0356585073077395e-05 0.0000000000000000e+00  1.2095376115917423e-06 -2.6406077866030061e-05 0.0000000000000000e+00  5.9299480502839536e-06 -3.3072050314812529e-05 0.0000000000000000e+00  1.2053883555641955e-05 -4.0319597653317526e-05 0.0000000000000000e+00  1.9697847658687119e-05 -4.8108577878400806e-05 0.0000000000000000e+00  2.8970485699733408e-05 -5.6393232830226738e-05 0.0000000000000000e+00  3.9971431648046307e-05 -6.5121819363478015e-05 0.0000000000000000e+00  5.2790061235599485e-05 -7.4236267001559397e-05 0.0000000000000000e+00  6.7504155472910326e-05 -8.3671880353271760e-05 0.0000000000000000e+00  8.4178482737972486e-05 -9.3357106302130327e-05 0.0000000000000000e+00  1.0286331228282561e-04 -1.0321338735365279e-04 0.0000000000000000e+00  1.2359287735369922e-04 -1.1315512307944720e-04 0.0000000000000000e+00  1.4638381164262793e-04 -1.2308976110968038e-04 0.0000000000000000e+00  1.7123358813883442e-04 -1.3291803715633732e-04 0.0000000000000000e+00  1.9811899303221654e-04 -1.4253437960781609e-04 0.0000000000000000e+00  2.2699466550311182e-04 -1.5182748796126330e-04 0.0000000000000000e+00  2.5779171776586578e-04 -1.6068108544248848e-04 0.0000000000000000e+00  2.9041639479628154e-04 -1.6897483481935856e-04 0.0000000000000000e+00  3.2474857891455125e-04 -1.7658539427419426e-04 0.0000000000000000e+00  3.6063953473076943e-04 -1.8338758100328281e-04 0.0000000000000000e+00  3.9790722767979057e-04 -1.8925561331829092e-04 0.0000000000000000e+00  4.3632482732356396e-04 -1.9406443437164272e-04 0.0000000000000000e+00  4.7559109192158621e-04 -1.9769121028652946e-04 0.0000000000000000e+00  5.1525391380007491e-04 -2.0001727481328856e-04 0.0000000000000000e+00  5.5451487944755339e-04 -2.0093106612859043e-04 0.0000000000000000e+00  5.9173592534853426e-04 -2.0033285119882101e-04 0.0000000000000000e+00  6.2321203785531268e-04 -1.9814183420708295e-04 0.0000000000000000e+00  6.4017503938982321e-04 -1.9430468560996297e-04 0.0000000000000000e+00  6.2167742264703093e-04 -1.8880062757994933e-04 0.0000000000000000e+00  5.1842261043884925e-04 -1.8163384060184513e-04 0.0000000000000000e+00  2.1872745479343424e-04 -1.7281309241412847e-04 0.0000000000000000e+00  -5.1393897553403552e-04 -1.6238212763732400e-04 0.0000000000000000e+00  -2.1304417355464101e-03 -1.5071985822687691e-04 0.0000000000000000e+00  0.0000000000000000e+00 5.3672696612751013e-06 0.0000000000000000e+00  -2.6445809336125402e-06 4.9107799484788152e-06 0.0000000000000000e+00  -5.1351232118453522e-06 3.5613627934497816e-06 0.0000000000000000e+00  -7.3259055463760022e-06 1.3218955183943326e-06 0.0000000000000000e+00  -9.0704665375686580e-06 -1.7998443593522511e-06 0.0000000000000000e+00  -1.0222701067215136e-05 -5.7918562269440307e-06 0.0000000000000000e+00  -1.0638026407058525e-05 -1.0638026407016218e-05 0.0000000000000000e+00  -1.0174241439086617e-05 -1.6317963542422695e-05 0.0000000000000000e+00  -8.6922260800644246e-06 -2.2806714553472349e-05 0.0000000000000000e+00  -6.0566396629600626e-06 -3.0074407836318957e-05 0.0000000000000000e+00  -2.1366796091163953e-06 -3.8085845348965381e-05 0.0000000000000000e+00  3.1930764987022844e-06 -4.6800057884883450e-05 0.0000000000000000e+00  1.0051734262556282e-05 -5.6169836857961458e-05 0.0000000000000000e+00  1.8551044257940248e-05 -6.6141257235368208e-05 0.0000000000000000e+00  2.8794257888299473e-05 -7.6653208464185583e-05 0.0000000000000000e+00  4.0874875644586525e-05 -8.7636952845662953e-05 0.0000000000000000e+00  5.4875289478249462e-05 -9.9015733422954421e-05 0.0000000000000000e+00  7.0865325135666932e-05 -1.1070445597003596e-04 0.0000000000000000e+00  8.8900695302274502e-05 -1.2260947184646395e-04 0.0000000000000000e+00  1.0902138014206188e-04 -1.3462848987545940e-04 0.0000000000000000e+00  1.3124995820244334e-04 -1.4665064576761241e-04 0.0000000000000000e+00  1.5558991706457787e-04 -1.5855675656640497e-04 0.0000000000000000e+00  1.8202397802201807e-04 -1.7021978457158079e-04 0.0000000000000000e+00  2.1051246882612126e-04 -1.8150553014517246e-04 0.0000000000000000e+00  2.4099176332241818e-04 -1.9227356541539215e-04 0.0000000000000000e+00  2.7337275229825513e-04 -2.0237841180291091e-04 0.0000000000000000e+00  3.0753915339239504e-04 -2.1167095519082762e-04 0.0000000000000000e+00  3.4334505078047249e-04 -2.2000008669108265e-04 0.0000000000000000e+00  3.8060997548040713e-04 -2.2721456100603779e-04 0.0000000000000000e+00  4.1910708141043855e-04 -2.3316508752894979e-04 0.0000000000000000e+00  4.5853300456264801e-04 -2.3770672241590031e-04 0.0000000000000000e+00  4.9843051596413796e-04 -2.4070171463885979e-04 0.0000000000000000e+00  5.3799164992529938e-04 -2.4202304456124029e-04 0.0000000000000000e+00  5.7556243980826007e-04 -2.4155887364062464e-04 0.0000000000000000e+00  6.0741404118700