<?xml version="1.0"?>
<VTKFile type="UnstructuredGrid"  version="0.1"  >
<UnstructuredGrid>
<Piece  NumberOfPoints="1681" NumberOfCells="3200">
<Points>
<DataArray  type="Float64"  NumberOfComponents="3"  format="ascii">0 0 0  0.5 0 0  1 0 0  1.5 0 0  2 0 0  2.5 0 0  3 0 0  3.5 0 0  4 0 0  4.5 0 0  5 0 0  5.5 0 0  6 0 0  6.5 0 0  7 0 0  7.5 0 0  8 0 0  8.5 0 0  9 0 0  9.5 0 0  10 0 0  10.5 0 0  11 0 0  11.5 0 0  12 0 0  12.5 0 0  13 0 0  13.5 0 0  14 0 0  14.5 0 0  15 0 0  15.5 0 0  16 0 0  16.5 0 0  17 0 0  17.5 0 0  18 0 0  18.5 0 0  19 0 0  19.5 0 0  20 0 0  0 0.5 0  0.5 0.5 0  1 0.5 0  1.5 0.5 0  2 0.5 0  2.5 0.5 0  3 0.5 0  3.5 0.5 0  4 0.5 0  4.5 0.5 0  5 0.5 0  5.5 0.5 0  6 0.5 0  6.5 0.5 0  7 0.5 0  7.5 0.5 0  8 0.5 0  8.5 0.5 0  9 0.5 0  9.5 0.5 0  10 0.5 0  10.5 0.5 0  11 0.5 0  11.5 0.5 0  12 0.5 0  12.5 0.5 0  13 0.5 0  13.5 0.5 0  14 0.5 0  14.5 0.5 0  15 0.5 0  15.5 0.5 0  16 0.5 0  16.5 0.5 0  17 0.5 0  17.5 0.5 0  18 0.5 0  18.5 0.5 0  19 0.5 0  19.5 0.5 0  20 0.5 0  0 1 0  0.5 1 0  1 1 0  1.5 1 0  2 1 0  2.5 1 0  3 1 0  3.5 1 0  4 1 0  4.5 1 0  5 1 0  5.5 1 0  6 1 0  6.5 1 0  7 1 0  7.5 1 0  8 1 0  8.5 1 0  9 1 0  9.5 1 0  10 1 0  10.5 1 0  11 1 0  11.5 1 0  12 1 0  12.5 1 0  13 1 0  13.5 1 0  14 1 0  14.5 1 0  15 1 0  15.5 1 0  16 1 0  16.5 1 0  17 1 0  17.5 1 0  18 1 0  18.5 1 0  19 1 0  19.5 1 0  20 1 0  0 1.5 0  0.5 1.5 0  1 1.5 0  1.5 1.5 0  2 1.5 0  2.5 1.5 0  3 1.5 0  3.5 1.5 0  4 1.5 0  4.5 1.5 0  5 1.5 0  5.5 1.5 0  6 1.5 0  6.5 1.5 0  7 1.5 0  7.5 1.5 0  8 1.5 0  8.5 1.5 0  9 1.5 0  9.5 1.5 0  10 1.5 0  10.5 1.5 0  11 1.5 0  11.5 1.5 0  12 1.5 0  12.5 1.5 0  13 1.5 0  13.5 1.5 0  14 1.5 0  14.5 1.5 0  15 1.5 0  15.5 1.5 0  16 1.5 0  16.5 1.5 0  17 1.5 0  17.5 1.5 0  18 1.5 0  18.5 1.5 0  19 1.5 0  19.5 1.5 0  20 1.5 0  0 2 0  0.5 2 0  1 2 0  1.5 2 0  2 2 0  2.5 2 0  3 2 0  3.5 2 0  4 2 0  4.5 2 0  5 2 0  5.5 2 0  6 2 0  6.5 2 0  7 2 0  7.5 2 0  8 2 0  8.5 2 0  9 2 0  9.5 2 0  10 2 0  10.5 2 0  11 2 0  11.5 2 0  12 2 0  12.5 2 0  13 2 0  13.5 2 0  14 2 0  14.5 2 0  15 2 0  15.5 2 0  16 2 0  16.5 2 0  17 2 0  17.5 2 0  18 2 0  18.5 2 0  19 2 0  19.5 2 0  20 2 0  0 2.5 0  0.5 2.5 0  1 2.5 0  1.5 2.5 0  2 2.5 0  2.5 2.5 0  3 2.5 0  3.5 2.5 0  4 2.5 0  4.5 2.5 0  5 2.5 0  5.5 2.5 0  6 2.5 0  6.5 2.5 0  7 2.5 0  7.5 2.5 0  8 2.5 0  8.5 2.5 0  9 2.5 0  9.5 2.5 0  10 2.5 0  10.5 2.5 0  11 2.5 0  11.5 2.5 0  12 2.5 0  12.5 2.5 0  13 2.5 0  13.5 2.5 0  14 2.5 0  14.5 2.5 0  15 2.5 0  15.5 2.5 0  16 2.5 0  16.5 2.5 0  17 2.5 0  17.5 2.5 0  18 2.5 0  18.5 2.5 0  19 2.5 0  19.5 2.5 0  20 2.5 0  0 3 0  0.5 3 0  1 3 0  1.5 3 0  2 3 0  2.5 3 0  3 3 0  3.5 3 0  4 3 0  4.5 3 0  5 3 0  5.5 3 0  6 3 0  6.5 3 0  7 3 0  7.5 3 0  8 3 0  8.5 3 0  9 3 0  9.5 3 0  10 3 0  10.5 3 0  11 3 0  11.5 3 0  12 3 0  12.5 3 0  13 3 0  13.5 3 0  14 3 0  14.5 3 0  15 3 0  15.5 3 0  16 3 0  16.5 3 0  17 3 0  17.5 3 0  18 3 0  18.5 3 0  19 3 0  19.5 3 0  20 3 0  0 3.5 0  0.5 3.5 0  1 3.5 0  1.5 3.5 0  2 3.5 0  2.5 3.5 0  3 3.5 0  3.5 3.5 0  4 3.5 0  4.5 3.5 0  5 3.5 0  5.5 3.5 0  6 3.5 0  6.5 3.5 0  7 3.5 0  7.5 3.5 0  8 3.5 0  8.5 3.5 0  9 3.5 0  9.5 3.5 0  10 3.5 0  10.5 3.5 0  11 3.5 0  11.5 3.5 0  12 3.5 0  12.5 3.5 0  13 3.5 0  13.5 3.5 0  14 3.5 0  14.5 3.5 0  15 3.5 0  15.5 3.5 0  16 3.5 0  16.5 3.5 0  17 3.5 0  17.5 3.5 0  18 3.5 0  18.5 3.5 0  19 3.5 0  19.5 3.5 0  20 3.5 0  0 4 0  0.5 4 0  1 4 0  1.5 4 0  2 4 0  2.5 4 0  3 4 0  3.5 4 0  4 4 0  4.5 4 0  5 4 0  5.5 4 0  6 4 0  6.5 4 0  7 4 0  7.5 4 0  8 4 0  8.5 4 0  9 4 0  9.5 4 0  10 4 0  10.5 4 0  11 4 0  11.5 4 0  12 4 0  12.5 4 0  13 4 0  13.5 4 0  14 4 0  14.5 4 0  15 4 0  15.5 4 0  16 4 0  16.5 4 0  17 4 0  17.5 4 0  18 4 0  18.5 4 0  19 4 0  19.5 4 0  20 4 0  0 4.5 0  0.5 4.5 0  1 4.5 0  1.5 4.5 0  2 4.5 0  2.5 4.5 0  3 4.5 0  3.5 4.5 0  4 4.5 0  4.5 4.5 0  5 4.5 0  5.5 4.5 0  6 4.5 0  6.5 4.5 0  7 4.5 0  7.5 4.5 0  8 4.5 0  8.5 4.5 0  9 4.5 0  9.5 4.5 0  10 4.5 0  10.5 4.5 0  11 4.5 0  11.5 4.5 0  12 4.5 0  12.5 4.5 0  13 4.5 0  13.5 4.5 0  14 4.5 0  14.5 4.5 0  15 4.5 0  15.5 4.5 0  16 4.5 0  16.5 4.5 0  17 4.5 0  17.5 4.5 0  18 4.5 0  18.5 4.5 0  19 4.5 0  19.5 4.5 0  20 4.5 0  0 5 0  0.5 5 0  1 5 0  1.5 5 0  2 5 0  2.5 5 0  3 5 0  3.5 5 0  4 5 0  4.5 5 0  5 5 0  5.5 5 0  6 5 0  6.5 5 0  7 5 0  7.5 5 0  8 5 0  8.5 5 0  9 5 0  9.5 5 0  10 5 0  10.5 5 0  11 5 0  11.5 5 0  12 5 0  12.5 5 0  13 5 0  13.5 5 0  14 5 0  14.5 5 0  15 5 0  15.5 5 0  16 5 0  16.5 5 0  17 5 0  17.5 5 0  18 5 0  18.5 5 0  19 5 0  19.5 5 0  20 5 0  0 5.5 0  0.5 5.5 0  1 5.5 0  1.5 5.5 0  2 5.5 0  2.5 5.5 0  3 5.5 0  3.5 5.5 0  4 5.5 0  4.5 5.5 0  5 5.5 0  5.5 5.5 0  6 5.5 0  6.5 5.5 0  7 5.5 0  7.5 5.5 0  8 5.5 0  8.5 5.5 0  9 5.5 0  9.5 5.5 0  10 5.5 0  10.5 5.5 0  11 5.5 0  11.5 5.5 0  12 5.5 0  12.5 5.5 0  13 5.5 0  13.5 5.5 0  14 5.5 0  14.5 5.5 0  15 5.5 0  15.5 5.5 0  16 5.5 0  16.5 5.5 0  17 5.5 0  17.5 5.5 0  18 5.5 0  18.5 5.5 0  19 5.5 0  19.5 5.5 0  20 5.5 0  0 6 0  0.5 6 0  1 6 0  1.5 6 0  2 6 0  2.5 6 0  3 6 0  3.5 6 0  4 6 0  4.5 6 0  5 6 0  5.5 6 0  6 6 0  6.5 6 0  7 6 0  7.5 6 0  8 6 0  8.5 6 0  9 6 0  9.5 6 0  10 6 0  10.5 6 0  11 6 0  11.5 6 0  12 6 0  12.5 6 0  13 6 0  13.5 6 0  14 6 0  14.5 6 0  15 6 0  15.5 6 0  16 6 0  16.5 6 0  17 6 0  17.5 6 0  18 6 0  18.5 6 0  19 6 0  19.5 6 0  20 6 0  0 6.5 0  0.5 6.5 0  1 6.5 0  1.5 6.5 0  2 6.5 0  2.5 6.5 0  3 6.5 0  3.5 6.5 0  4 6.5 0  4.5 6.5 0  5 6.5 0  5.5 6.5 0  6 6.5 0  6.5 6.5 0  7 6.5 0  7.5 6.5 0  8 6.5 0  8.5 6.5 0  9 6.5 0  9.5 6.5 0  10 6.5 0  10.5 6.5 0  11 6.5 0  11.5 6.5 0  12 6.5 0  12.5 6.5 0  13 6.5 0  13.5 6.5 0  14 6.5 0  14.5 6.5 0  15 6.5 0  15.5 6.5 0  16 6.5 0  16.5 6.5 0  17 6.5 0  17.5 6.5 0  18 6.5 0  18.5 6.5 0  19 6.5 0  19.5 6.5 0  20 6.5 0  0 7 0  0.5 7 0  1 7 0  1.5 7 0  2 7 0  2.5 7 0  3 7 0  3.5 7 0  4 7 0  4.5 7 0  5 7 0  5.5 7 0  6 7 0  6.5 7 0  7 7 0  7.5 7 0  8 7 0  8.5 7 0  9 7 0  9.5 7 0  10 7 0  10.5 7 0  11 7 0  11.5 7 0  12 7 0  12.5 7 0  13 7 0  13.5 7 0  14 7 0  14.5 7 0  15 7 0  15.5 7 0  16 7 0  16.5 7 0  17 7 0  17.5 7 0  18 7 0  18.5 7 0  19 7 0  19.5 7 0  20 7 0  0 7.5 0  0.5 7.5 0  1 7.5 0  1.5 7.5 0  2 7.5 0  2.5 7.5 0  3 7.5 0  3.5 7.5 0  4 7.5 0  4.5 7.5 0  5 7.5 0  5.5 7.5 0  6 7.5 0  6.5 7.5 0  7 7.5 0  7.5 7.5 0  8 7.5 0  8.5 7.5 0  9 7.5 0  9.5 7.5 0  10 7.5 0  10.5 7.5 0  11 7.5 0  11.5 7.5 0  12 7.5 0  12.5 7.5 0  13 7.5 0  13.5 7.5 0  14 7.5 0  14.5 7.5 0  15 7.5 0  15.5 7.5 0  16 7.5 0  16.5 7.5 0  17 7.5 0  17.5 7.5 0  18 7.5 0  18.5 7.5 0  19 7.5 0  19.5 7.5 0  20 7.5 0  0 8 0  0.5 8 0  1 8 0  1.5 8 0  2 8 0  2.5 8 0  3 8 0  3.5 8 0  4 8 0  4.5 8 0  5 8 0  5.5 8 0  6 8 0  6.5 8 0  7 8 0  7.5 8 0  8 8 0  8.5 8 0  9 8 0  9.5 8 0  10 8 0  10.5 8 0  11 8 0  11.5 8 0  12 8 0  12.5 8 0  13 8 0  13.5 8 0  14 8 0  14.5 8 0  15 8 0  15.5 8 0  16 8 0  16.5 8 0  17 8 0  17.5 8 0  18 8 0  18.5 8 0  19 8 0  19.5 8 0  20 8 0  0 8.5 0  0.5 8.5 0  1 8.5 0  1.5 8.5 0  2 8.5 0  2.5 8.5 0  3 8.5 0  3.5 8.5 0  4 8.5 0  4.5 8.5 0  5 8.5 0  5.5 8.5 0  6 8.5 0  6.5 8.5 0  7 8.5 0  7.5 8.5 0  8 8.5 0  8.5 8.5 0  9 8.5 0  9.5 8.5 0  10 8.5 0  10.5 8.5 0  11 8.5 0  11.5 8.5 0  12 8.5 0  12.5 8.5 0  13 8.5 0  13.5 8.5 0  14 8.5 0  14.5 8.5 0  15 8.5 0  15.5 8.5 0  16 8.5 0  16.5 8.5 0  17 8.5 0  17.5 8.5 0  18 8.5 0  18.5 8.5 0  19 8.5 0  19.5 8.5 0  20 8.5 0  0 9 0  0.5 9 0  1 9 0  1.5 9 0  2 9 0  2.5 9 0  3 9 0  3.5 9 0  4 9 0  4.5 9 0  5 9 0  5.5 9 0  6 9 0  6.5 9 0  7 9 0  7.5 9 0  8 9 0  8.5 9 0  9 9 0  9.5 9 0  10 9 0  10.5 9 0  11 9 0  11.5 9 0  12 9 0  12.5 9 0  13 9 0  13.5 9 0  14 9 0  14.5 9 0  15 9 0  15.5 9 0  16 9 0  16.5 9 0  17 9 0  17.5 9 0  18 9 0  18.5 9 0  19 9 0  19.5 9 0  20 9 0  0 9.5 0  0.5 9.5 0  1 9.5 0  1.5 9.5 0  2 9.5 0  2.5 9.5 0  3 9.5 0  3.5 9.5 0  4 9.5 0  4.5 9.5 0  5 9.5 0  5.5 9.5 0  6 9.5 0  6.5 9.5 0  7 9.5 0  7.5 9.5 0  8 9.5 0  8.5 9.5 0  9 9.5 0  9.5 9.5 0  10 9.5 0  10.5 9.5 0  11 9.5 0  11.5 9.5 0  12 9.5 0  12.5 9.5 0  13 9.5 0  13.5 9.5 0  14 9.5 0  14.5 9.5 0  15 9.5 0  15.5 9.5 0  16 9.5 0  16.5 9.5 0  17 9.5 0  17.5 9.5 0  18 9.5 0  18.5 9.5 0  19 9.5 0  19.5 9.5 0  20 9.5 0  0 10 0  0.5 10 0  1 10 0  1.5 10 0  2 10 0  2.5 10 0  3 10 0  3.5 10 0  4 10 0  4.5 10 0  5 10 0  5.5 10 0  6 10 0  6.5 10 0  7 10 0  7.5 10 0  8 10 0  8.5 10 0  9 10 0  9.5 10 0  10 10 0  10.5 10 0  11 10 0  11.5 10 0  12 10 0  12.5 10 0  13 10 0  13.5 10 0  14 10 0  14.5 10 0  15 10 0  15.5 10 0  16 10 0  16.5 10 0  17 10 0  17.5 10 0  18 10 0  18.5 10 0  19 10 0  19.5 10 0  20 10 0  0 10.5 0  0.5 10.5 0  1 10.5 0  1.5 10.5 0  2 10.5 0  2.5 10.5 0  3 10.5 0  3.5 10.5 0  4 10.5 0  4.5 10.5 0  5 10.5 0  5.5 10.5 0  6 10.5 0  6.5 10.5 0  7 10.5 0  7.5 10.5 0  8 10.5 0  8.5 10.5 0  9 10.5 0  9.5 10.5 0  10 10.5 0  10.5 10.5 0  11 10.5 0  11.5 10.5 0  12 10.5 0  12.5 10.5 0  13 10.5 0  13.5 10.5 0  14 10.5 0  14.5 10.5 0  15 10.5 0  15.5 10.5 0  16 10.5 0  16.5 10.5 0  17 10.5 0  17.5 10.5 0  18 10.5 0  18.5 10.5 0  19 10.5 0  19.5 10.5 0  20 10.5 0  0 11 0  0.5 11 0  1 11 0  1.5 11 0  2 11 0  2.5 11 0  3 11 0  3.5 11 0  4 11 0  4.5 11 0  5 11 0  5.5 11 0  6 11 0  6.5 11 0  7 11 0  7.5 11 0  8 11 0  8.5 11 0  9 11 0  9.5 11 0  10 11 0  10.5 11 0  11 11 0  11.5 11 0  12 11 0  12.5 11 0  13 11 0  13.5 11 0  14 11 0  14.5 11 0  15 11 0  15.5 11 0  16 11 0  16.5 11 0  17 11 0  17.5 11 0  18 11 0  18.5 11 0  19 11 0  19.5 11 0  20 11 0  0 11.5 0  0.5 11.5 0  1 11.5 0  1.5 11.5 0  2 11.5 0  2.5 11.5 0  3 11.5 0  3.5 11.5 0  4 11.5 0  4.5 11.5 0  5 11.5 0  5.5 11.5 0  6 11.5 0  6.5 11.5 0  7 11.5 0  7.5 11.5 0  8 11.5 0  8.5 11.5 0  9 11.5 0  9.5 11.5 0  10 11.5 0  10.5 11.5 0  11 11.5 0  11.5 11.5 0  12 11.5 0  12.5 11.5 0  13 11.5 0  13.5 11.5 0  14 11.5 0  14.5 11.5 0  15 11.5 0  15.5 11.5 0  16 11.5 0  16.5 11.5 0  17 11.5 0  17.5 11.5 0  18 11.5 0  18.5 11.5 0  19 11.5 0  19.5 11.5 0  20 11.5 0  0 12 0  0.5 12 0  1 12 0  1.5 12 0  2 12 0  2.5 12 0  3 12 0  3.5 12 0  4 12 0  4.5 12 0  5 12 0  5.5 12 0  6 12 0  6.5 12 0  7 12 0  7.5 12 0  8 12 0  8.5 12 0  9 12 0  9.5 12 0  10 12 0  10.5 12 0  11 12 0  11.5 12 0  12 12 0  12.5 12 0  13 12 0  13.5 12 0  14 12 0  14.5 12 0  
[...]
<PointData  Vectors="f_5623-0"> 
<DataArray  type="Float64"  Name="f_5623-0"  NumberOfComponents="3" format="ascii">0.0000000000000000e+00 0.0000000000000000e+00 0.0000000000000000e+00  3.3408884012370171e-09 0.0000000000000000e+00 0.0000000000000000e+00  2.2747200608187222e-08 0.0000000000000000e+00 0.0000000000000000e+00  7.5188769797760917e-08 0.0000000000000000e+00 0.0000000000000000e+00  1.7702621315943483e-07 0.0000000000000000e+00 0.0000000000000000e+00  3.4440757613827246e-07 0.0000000000000000e+00 0.0000000000000000e+00  5.9318699592563648e-07 0.0000000000000000e+00 0.0000000000000000e+00  9.3884047103422931e-07 0.0000000000000000e+00 0.0000000000000000e+00  1.3963812904268705e-06 0.0000000000000000e+00 0.0000000000000000e+00  1.9802697914462844e-06 0.0000000000000000e+00 0.0000000000000000e+00  2.7043162514255069e-06 0.0000000000000000e+00 0.0000000000000000e+00  3.5815766452118070e-06 0.0000000000000000e+00 0.0000000000000000e+00  4.6242411932408982e-06 0.0000000000000000e+00 0.0000000000000000e+00  5.8435157661876295e-06 0.0000000000000000e+00 0.0000000000000000e+00  7.2494964728106670e-06 0.0000000000000000e+00 0.0000000000000000e+00  8.8510380707094543e-06 0.0000000000000000e+00 0.0000000000000000e+00  1.0655617209910048e-05 0.0000000000000000e+00 0.0000000000000000e+00  1.2669191943129671e-05 0.0000000000000000e+00 0.0000000000000000e+00  1.4896059392070840e-05 0.0000000000000000e+00 0.0000000000000000e+00  1.7338713911066168e-05 0.0000000000000000e+00 0.0000000000000000e+00  1.9997708548173013e-05 0.0000000000000000e+00 0.0000000000000000e+00  2.2871523009875963e-05 0.0000000000000000e+00 0.0000000000000000e+00  2.5956441625806241e-05 0.0000000000000000e+00 0.0000000000000000e+00  2.9246444945154635e-05 0.0000000000000000e+00 0.0000000000000000e+00  3.2733118392696491e-05 0.0000000000000000e+00 0.0000000000000000e+00  3.6405580711580325e-05 0.0000000000000000e+00 0.0000000000000000e+00  4.0250433250115921e-05 0.0000000000000000e+00 0.0000000000000000e+00  4.4251727748232431e-05 0.0000000000000000e+00 0.0000000000000000e+00  4.8390943351806131e-05 0.0000000000000000e+00 0.0000000000000000e+00  5.2646949139516911e-05 0.0000000000000000e+00 0.0000000000000000e+00  5.6995896626521916e-05 0.0000000000000000e+00 0.0000000000000000e+00  6.1410911985945770e-05 0.0000000000000000e+00 0.0000000000000000e+00  6.5861268837403509e-05 0.0000000000000000e+00 0.0000000000000000e+00  7.0310205757063103e-05 0.0000000000000000e+00 0.0000000000000000e+00  7.4708991888520609e-05 0.0000000000000000e+00 0.0000000000000000e+00  7.8979377730374381e-05 0.0000000000000000e+00 0.0000000000000000e+00  8.2952319372475231e-05 0.0000000000000000e+00 0.0000000000000000e+00  8.6079386614657755e-05 0.0000000000000000e+00 0.0000000000000000e+00  8.5310565376161315e-05 0.0000000000000000e+00 0.0000000000000000e+00  5.0284654701928408e-05 0.0000000000000000e+00 0.0000000000000000e+00  -2.2280088547935468e-04 0.0000000000000000e+00 0.0000000000000000e+00  0.0000000000000000e+00 3.3408881557029370e-09 0.0000000000000000e+00  -5.7511502570050134e-09 -5.7511503675901773e-09 0.0000000000000000e+00  5.4827811705296045e-09 -3.0708560923844958e-08 0.0000000000000000e+00  4.9690193696395657e-08 -7.1976884958805363e-08 0.0000000000000000e+00  1.4326734856890579e-07 -1.2949613834171623e-07 0.0000000000000000e+00  3.0238719078753356e-07 -2.0302810449612349e-07 0.0000000000000000e+00  5.4291466259467246e-07 -2.9223871807854403e-07 0.0000000000000000e+00  8.8033552182504393e-07 -3.9671016400137179e-07 0.0000000000000000e+00  1.3296749180719974e-06 -5.1593728519125924e-07 0.0000000000000000e+00  1.9054080478646636e-06 -6.4932116928838327e-07 0.0000000000000000e+00  2.6213635508758458e-06 -7.9616219176866044e-07 0.0000000000000000e+00  3.4906196274422353e-06 -9.5565285229022597e-07 0.0000000000000000e+00  4.5253928030193176e-06 -1.1268705583120364e-06 0.0000000000000000e+00  5.7369194049201528e-06 -1.3087705668589160e-06 0.0000000000000000e+00  7.1353300518794302e-06 -1.5001793775047669e-06 0.0000000000000000e+00  8.7295177778764509e-06 -1.6997889313320534e-06 0.0000000000000000e+00  1.0527000768250548e-05 -1.9061520170696286e-06 0.0000000000000000e+00  1.2533781119329949e-05 -2.1176793175425791e-06 0.0000000000000000e+00  1.4754201461464000e-05 -2.3326385722479812e-06 0.0000000000000000e+00  1.7190801764318270e-05 -2.5491562985927606e-06 0.0000000000000000e+00  1.9844179077442669e-05 -2.7652225225662207e-06 0.0000000000000000e+00  2.2712853358456719e-05 -2.9786988679069239e-06 0.0000000000000000e+00  2.5793142832591514e-05 -3.1873302286301509e-06 0.0000000000000000e+00  2.9079052418714532e-05 -3.3887599914077031e-06 0.0000000000000000e+00  3.2562178537640026e-05 -3.5805483745704303e-06 0.0000000000000000e+00  3.6231632843798875e-05 -3.7601926703114670e-06 0.0000000000000000e+00  4.0073985704477053e-05 -3.9251468859576949e-06 0.0000000000000000e+00  4.4073226844736215e-05 -4.0728355951656786e-06 0.0000000000000000e+00  4.8210733962109413e-05 -4.2006515261578209e-06 0.0000000000000000e+00  5.2465227183064888e-05 -4.3059147000010860e-06 0.0000000000000000e+00  5.6812661195812183e-05 -4.3857438938134058e-06 0.0000000000000000e+00  6.1225952796913210e-05 -4.4367239064206454e-06 0.0000000000000000e+00  6.5674327320826281e-05 -4.4540733388464577e-06 0.0000000000000000e+00  7.0121829323755599e-05 -4.4295168906262256e-06 0.0000000000000000e+00  7.4524045045457199e-05 -4.3456595678814497e-06 0.0000000000000000e+00  7.8820396630103606e-05 -4.1611333389394793e-06 0.0000000000000000e+00  8.2903702182991347e-05 -3.7755569412286408e-06 0.0000000000000000e+00  8.6362898896407149e-05 -2.9789177888427877e-06 0.0000000000000000e+00  8.5796633430394674e-05 -1.5461451144160951e-06 0.0000000000000000e+00  4.8335651987331010e-05 3.3718557363685580e-08 0.0000000000000000e+00  -2.2560552439137432e-04 8.3736619251811141e-07 0.0000000000000000e+00  0.0000000000000000e+00 2.2747200413928067e-08 0.0000000000000000e+00  -3.0708560968628417e-08 5.4827810237645407e-09 0.0000000000000000e+00  -4.4328294497068897e-08 -4.4328294498534019e-08 0.0000000000000000e+00  -2.4952126205639563e-08 -1.2691145597016862e-07 0.0000000000000000e+00  4.3803273338257065e-08 -2.4199507327188883e-07 0.0000000000000000e+00  1.7811460295944821e-07 -3.8909523434599240e-07 0.0000000000000000e+00  3.9386232790800654e-07 -5.6755748307175778e-07 0.0000000000000000e+00  7.0655571506117051e-07 -7.7655757832671910e-07 0.0000000000000000e+00  1.1312521093953493e-06 -1.0150940505540619e-06 0.0000000000000000e+00  1.6824688978180055e-06 -1.2819771292087768e-06 0.0000000000000000e+00  2.3740880143098089e-06 -1.5758156917479611e-06 0.0000000000000000e+00  3.2192529025465555e-06 -1.8950031535003652e-06 0.0000000000000000e+00  4.2302578157266483e-06 -2.2377029476108336e-06 0.0000000000000000e+00  5.4184294606302664e-06 -2.6018341800312167e-06 0.0000000000000000e+00  6.7940012069189740e-06 -2.9850580980820447e-06 0.0000000000000000e+00  8.3659803919428880e-06 -3.3847661018995133e-06 0.0000000000000000e+00  1.0142009614421825e-05 -3.7980700949098902e-06 0.0000000000000000e+00  1.2128223310924712e-05 -4.2217960526006781e-06 0.0000000000000000e+00  1.4329101373541541e-05 -4.6524817413965246e-06 0.0000000000000000e+00  1.6747322002123788e-05 -5.0863794892613865e-06 0.0000000000000000e+00  1.9383616436140662e-05 -5.5194648803140238e-06 0.0000000000000000e+00  2.2236628592657423e-05 -5.9474520769101780e-06 0.0000000000000000e+00  2.5302782911490079e-05 -6.3658161897764906e-06 0.0000000000000000e+00  2.8576163777875578e-05 -6.7698226053228870e-06 0.0000000000000000e+00  3.2048409652376794e-05 -7.1545623550984024e-06 0.0000000000000000e+00  3.5708624261169651e-05 -7.5149911341175414e-06 0.0000000000000000e+00  3.9543305640228164e-05 -7.8459670682676746e-06 0.0000000000000000e+00  4.3536290960523109e-05 -8.1422776005753912e-06 0.0000000000000000e+00  4.7668710232843164e-05 -8.3986369069481121e-06 0.0000000000000000e+00  5.1918934217373762e-05 -8.6096170703183014e-06 0.0000000000000000e+00  5.6262490447046457e-05 -8.7694381514455557e-06 0.0000000000000000e+00  6.0671908341104043e-05 -8.8714593901812625e-06 0.0000000000000000e+00  6.5116455122725847e-05 -8.9070307505545427e-06 0.0000000000000000e+00  6.9561792607191977e-05 -8.8629707898321001e-06 0.0000000000000000e+00  7.3969765138591018e-05 -8.7162011979031164e-06 0.0000000000000000e+00  7.8297330672034580e-05 -8.4233187139723014e-06 0.0000000000000000e+00  8.2470909138376630e-05 -7.9053900773576368e-06 0.0000000000000000e+00  8.6071228078342884e-05 -7.0471827502844222e-06 0.0000000000000000e+00  8.5278545962242747e-05 -5.7808809739897448e-06 0.0000000000000000e+00  4.6019778289673358e-05 -4.2471656968555107e-06 0.0000000000000000e+00  -2.2926481064509138e-04 -2.3978135473373680e-06 0.0000000000000000e+00  0.0000000000000000e+00 7.5188769725915582e-08 0.0000000000000000e+00  -7.1976885194093818e-08 4.9690193566866744e-08 0.0000000000000000e+00  -1.2691145629128566e-07 -2.4952126378142667e-08 0.0000000000000000e+00  -1.4882003521324862e-07 -1.4882003504892354e-07 0.0000000000000000e+00  -1.2134089299549170e-07 -3.2146117088320303e-07 0.0000000000000000e+00  -2.8286187546053047e-08 -5.4214857761129901e-07 0.0000000000000000e+00  1.4624685988870307e-07 -8.0990946804819904e-07 0.0000000000000000e+00  4.1780322925950396e-07 -1.1235211529683319e-06 0.0000000000000000e+00  8.0149144336334839e-07 -1.4814978365737404e-06 0.0000000000000000e+00  1.3118972681827610e-06 -1.8820731228219632e-06 0.0000000000000000e+00  1.9629898664747081e-06 -2.3231800229062577e-06 0.0000000000000000e+00  2.7680201334794093e-06 -2.8024294287718046e-06 0.0000000000000000e+00  3.7394109393313204e-06 -3.3170878511748793e-06 0.0000000000000000e+00  4.8886391346711008e-06 -3.8640552709151104e-06 0.0000000000000000e+00  6.2261094035752369e-06 -4.4398440548161622e-06 0.0000000000000000e+00  7.7610203481057440e-06 -5.0405600160720633e-06 0.0000000000000000e+00  9.5012235365228451e-06 -5.6618868243318612e-06 0.0000000000000000e+00  1.1453076664092577e-05 -6.2990750782612927e-06 0.0000000000000000e+00  1.3621292414724295e-05 -6.9469374173782587e-06 0.0000000000000000e+00  1.6008785055751394e-05 -7.5998510487814126e-06 0.0000000000000000e+00  1.8616517266269080e-05 -8.2517689647141555e-06 0.0000000000000000e+00  2.1443350072127744e-05 -8.8962409121523141e-06 0.0000000000000000e+00  2.4485899054160878e-05 -9.5264447107211390e-06 0.0000000000000000e+00  2.7738400091976352e-05 -1.0135227779619885e-05 0.0000000000000000e+00  3.1192587705152578e-05 -1.0715157484644298e-05 0.0000000000000000e+00  3.4837588442550199e-05 -1.1258576874075116e-05 0.0000000000000000e+00  3.8659830549729500e-05 -1.1757658942444959e-05 0.0000000000000000e+00  4.2642969226497538e-05 -1.2204446658516555e-05 0.0000000000000000e+00  4.6767824191997353e-05 -1.2590855563068364e-05 0.0000000000000000e+00  5.1012323796964026e-05 -1.2908596753227055e-05 0.0000000000000000e+00  5.5351450593690255e-05 -1.3148943098356620e-05 0.0000000000000000e+00  5.9757196550425503e-05 -1.3302197487271534e-05 0.0000000000000000e+00  6.4198586748716248e-05 -1.3356610726515572e-05 0.0000000000000000e+00  6.8641959134748074e-05 -1.3296333657398388e-05 0.0000000000000000e+00  7.3051753075533928e-05 -1.3097874392578581e-05 0.0000000000000000e+00  7.7389582221300103e-05 -1.2724992787557318e-05 0.0000000000000000e+00  8.1580602213757514e-05 -1.2124653241534122e-05 0.0000000000000000e+00  8.5157745273677378e-05 -1.1234151876986520e-05 0.0000000000000000e+00  8.4108147629648132e-05 -1.0014692678286119e-05 0.0000000000000000e+00  4.4131511646025259e-05 -8.4784992910428288e-06 0.0000000000000000e+00  -2.3137939319828045e-04 -6.7048899690203765e-06 0.0000000000000000e+00  0.0000000000000000e+00 1.7702621314833650e-07 0.0000000000000000e+00  -1.2949613825860790e-07 1.4326734857827313e-07 0.0000000000000000e+00  -2.4199507310586693e-07 4.3803273159618412e-08 0.0000000000000000e+00  -3.2146117079377885e-07 -1.2134089285313387e-07 0.0000000000000000e+00  -3.5154268935672866e-07 -3.5154268935842194e-07 0.0000000000000000e+00  -3.1603751346611471e-07 -6.4584068976354443e-07 0.0000000000000000e+00  -1.9901337570276200e-07 -1.0029575787280102e-06 0.0000000000000000e+00  1.5121696547993491e-08 -1.4212889528142432e-06 0.0000000000000000e+00  3.4154431997477449e-07 -1.8988838790569056e-06 0.0000000000000000e+00  7.9493256287150454e-07 -2.4334208909120987e-06 0.0000000000000000e+00  1.3893746654118730e-06 -3.0221807394290397e-06 0.0000000000000000e+00  2.1382694415663592e-06 -3.6620169482610207e-06 0.0000000000000000e+00  3.0542179881412486e-06 -4.3493251729312825e-06 0.0000000000000000e+00  4.1489063880946806e-06 -5.0800124743683592e-06 0.0000000000000000e+00  5.4329793032955081e-06 -5.8494677432508048e-06 0.0000000000000000e+00  6.9159046320723764e-06 -6.6525347036319472e-06 0.0000000000000000e+00  8.6058297622089173e-06 -7.4834890899149092e-06 0.0000000000000000e+00  1.0509430359492775e-05 -8.3360217453141263e-06 0.0000000000000000e+00  1.2631753065271464e-05 -9.2032294661827628e-06 0.0000000000000000e+00  1.4976053965266367e-05 -1.0077615453219010e-05 0.0000000000000000e+00  1.7543635165024398e-05 -1.0951101070372611e-05 0.0000000000000000e+00  2.0333682235359576e-05 -1.1815050351497245e-05 0.0000000000000000e+00  2.3343105661257691e-05 -1.2660308082107078e-05 0.0000000000000000e+00  2.6566389629209965e-05 -1.3477251333602039e-05 0.0000000000000000e+00  2.9995451486153022e-05 -1.4255852761828994e-05 0.0000000000000000e+00  3.3619514916227242e-05 -1.4985751505407144e-05 0.0000000000000000e+00  3.7424999305198804e-05 -1.5656323600558646e-05 0.0000000000000000e+00  4.1395427042666826e-05 -1.6256737570629838e-05 0.0000000000000000e+00  4.5511350244650535e-05 -1.6775970750360482e-05 0.0000000000000000e+00  4.9750300197833568e-05 -1.7202745632825911e-05 0.0000000000000000e+00  5.4086770930516504e-05 -1.7525319889607458e-05 0.0000000000000000e+00  5.8492272021872639e-05 -1.7731026039064354e-05 0.0000000000000000e+00  6.2935541804792322e-05 -1.7805411612298868e-05 0.0000000000000000e+00  6.7383101175684924e-05 -1.7730811226861756e-05 0.0000000000000000e+00  7.1800168995929579e-05 -1.7484306285703875e-05 0.0000000000000000e+00  7.6148715646438150e-05 -1.7035604651678412e-05 0.0000000000000000e+00  8.0348919717409203e-05 -1.6346952148324929e-05 0.0000000000000000e+00  8.3910992997438631e-05 -1.5379912942023343e-05 0.0000000000000000e+00  8.2773178271166304e-05 -1.4114507762809211e-05 0.0000000000000000e+00  4.2637455808226888e-05 -1.2579547267740815e-05 0.0000000000000000e+00  -2.3286365268234896e-04 -1.0991920132740714e-05 0.0000000000000000e+00  0.0000000000000000e+00 3.4440757598514372e-07 0.0000000000000000e+00  -2.0302810445419102e-07 3.0238719078594246e-07 0.0000000000000000e+00  -3.8909523436157050e-07 1.7811460300497406e-07 0.0000000000000000e+00  -5.4214857774189159e-07 -2.8286187397737187e-08 0.0000000000000000e+00  -6.4584068985248152e-07 -3.1603751323729458e-07 0.0000000000000000e+00  -6.8395790172806431e-07 -6.8395790173420287e-07 0.0000000000000000e+00  -6.4053597828208623e-07 -1.1304832336604228e-06 0.0000000000000000e+00  -4.9992806053065175e-07 -1.6536494117092871e-06 0.0000000000000000e+00  -2.4687554142001629e-07 -2.2510663067674515e-06 0.0000000000000000e+00  1.3341285265948947e-07 -2.9198866697337766e-06 0.0000000000000000e+00  6.5517338640828461e-07 -3.6567710933578011e-06 0.0000000000000000e+00  1.3319906941797737e-06 -4.4578500339577237e-06 0.0000000000000000e+00  2.1766916924286569e-06 -5.3186840282004136e-06 0.0000000000000000e+00  3.2012295329890998e-06 -6.2342234147462648e-06 0.0000000000000000e+00  4.4165572629395607e-06 -7.1987690815003792e-06 0.0000000000000000e+00  5.8324911254198238e-06 -8.2059359953401133e-06 0.0000000000000000e+00  7.4575637745947354e-06 -9.2486214957723437e-06 0.0000000000000000e+00  9.2988680848114956e-06 -1.0318980534779561e-05 0.0000000000000000e+00  1.1361892700803229e-05 -1.1408410167676533e-05 0.0000000000000000e+00  1.3650350994321657e-05 -1.2507545656881675e-05 0.0000000000000000e+00  1.6166005621768443e-05 -1.3606270388888146e-05 0.0000000000000000e+00  1.8908491424852708e-05 -1.4693741493078048e-05 0.0000000000000000e+00  2.1875139923315288e-05 -1.5758432373701215e-05 0.0000000000000000e+00  2.5060809082646597e-05 -1.6788192242416023e-05 0.0000000000000000e+00  2.8457722392871933e-05 -1.7770321012530388e-05 0.0000000000000000e+00  3.2055321548223239e-05 -1.8691655233423940e-05 0.0000000000000000e+00  3.5840137330733830e-05 -1.9538656777376027e-05 0.0000000000000000e+00  3.9795684000984448e-05 -2.0297490137477580e-05 0.0000000000000000e+00  4.3902384498030773e-05 -2.0954065733871061e-05 0.0000000000000000e+00  4.8137538993109608e-05 -2.1494014884391819e-05 0.0000000000000000e+00  5.2475361754499615e-05 -2.1902547343813148e-05 0.0000000000000000e+00  5.6887137894547559e-05 -2.2164128154672882e-05 0.0000000000000000e+00  6.1341600291717844e-05 -2.2261910829855632e-05 0.0000000000000000e+00  6.5805673839652477e-05 -2.2176916776877618e-05 0.0000000000000000e+00  7.0245447058825657e-05 -2.1887144731830594e-05 0.0000000000000000e+00  7.4623721157321028e-05 -2.1367292633083415e-05 0.0000000000000000e+00  7.8859724181314808e-05 -2.0590779522911367e-05 0.0000000000000000e+00  8.2458064114412417e-05 -1.9537218566619962e-05 0.0000000000000000e+00  8.1347179458346870e-05 -1.8209304549109450e-05 0.0000000000000000e+00  4.1228433383576739e-05 -1.6662422388033676e-05 0.0000000000000000e+00  -2.3427423175819057e-04 -1.5114626478346965e-05 0.0000000000000000e+00  0.0000000000000000e+00 5.9318699590047886e-07 0.0000000000000000e+00  -2.9223871816551742e-07 5.4291466268089766e-07 0.0000000000000000e+00  -5.6755748310173025e-07 3.9386232802715358e-07 0.0000000000000000e+00  -8.0990946810097512e-07 1.4624685984870445e-07 0.0000000000000000e+00  -1.0029575787761749e-06 -1.9901337564282275e-07 0.0000000000000000e+00  -1.1304832336961347e-06 -6.4053597825934138e-07 0.0000000000000000e+00  -1.1764929712909998e-06 -1.1764929711775117e-06 0.0000000000000000e+00  -1.1252821893425894e-06 -1.8045883095597364e-06 0.0000000000000000e+00  -9.6150103877622415e-07 -2.5220252408297499e-06 0.0000000000000000e+00  -6.7022846556787321e-07 -3.3254677268008190e-06 0.0000000000000000e+00  -2.3705524107869545e-07 -4.2109970294891227e-06 0.0000000000000000e+00  3.5182341515717891e-07 -5.1740644685233050e-06 0.0000000000000000e+00  1.1095048885723595e-06 -6.2094415757077942e-06 0.0000000000000000e+00  2.0482651666904822e-06 -7.3111691151444778e-06 0.0000000000000000e+00  3.1794331838706789e-06 -8.4725067466408714e-06 0.0000000000000000e+00  4.5132531521524786e-06 -9.6858853961720246e-06 0.0000000000000000e+00  6.0587348489571509e-06 -1.0942864699336679e-05 0.0000000000000000e+00  7.8234922464483309e-06 -1.2234098146827349e-05 0.0000000000000000e+00  9.8135713659282242e-06 -1.3549308760097869e-05 0.0000000000000000e+00  1.2033268810355863e-05 -1.4877278208492193e-05 0.0000000000000000e+00  1.4484943066933963e-05 -1.6205852181669809e-05 0.0000000000000000e+00  1.7168821373850952e-05 -1.7521964516526154e-05 0.0000000000000000e+00  2.0082805675279901e-05 -1.8811681885714302e-05 0.0000000000000000e+00  2.3222281964443780e-05 -2.0060269715808218e-05 0.0000000000000000e+00  2.6579938153379489e-05 -2.1252278255602881e-05 0.0000000000000000e+00  3.0145596557992682e-05 -2.2371645115532195e-05 0.0000000000000000e+00  3.3906068416184173e-05 -2.3401807007298509e-05 0.0000000000000000e+00  3.7845039996244768e-05 -2.4325808590378253e-05 0.0000000000000000e+00  4.1943003784439357e-05 -2.5126390304651974e-05 0.0000000000000000e+00  4.6177255765551433e-05 -2.5786030551255553e-05 0.0000000000000000e+00  5.0521993983536334e-05 -2.6286913004391703e-05 0.0000000000000000e+00  5.4948578636364101e-05 -2.6610793890695101e-05 0.0000000000000000e+00  5.9426050898393027e-05 -2.6738772363971215e-05 0.0000000000000000e+00  6.3922018859552052e-05 -2.6651051922635489e-05 0.0000000000000000e+00  6.8403653189487554e-05 