<?xml version="1.0"?>
<VTKFile type="UnstructuredGrid"  version="0.1"  >
<UnstructuredGrid>
<Piece  NumberOfPoints="1681" NumberOfCells="3200">
<Points>
<DataArray  type="Float64"  NumberOfComponents="3"  format="ascii">0 0 0  0.5 0 0  1 0 0  1.5 0 0  2 0 0  2.5 0 0  3 0 0  3.5 0 0  4 0 0  4.5 0 0  5 0 0  5.5 0 0  6 0 0  6.5 0 0  7 0 0  7.5 0 0  8 0 0  8.5 0 0  9 0 0  9.5 0 0  10 0 0  10.5 0 0  11 0 0  11.5 0 0  12 0 0  12.5 0 0  13 0 0  13.5 0 0  14 0 0  14.5 0 0  15 0 0  15.5 0 0  16 0 0  16.5 0 0  17 0 0  17.5 0 0  18 0 0  18.5 0 0  19 0 0  19.5 0 0  20 0 0  0 0.5 0  0.5 0.5 0  1 0.5 0  1.5 0.5 0  2 0.5 0  2.5 0.5 0  3 0.5 0  3.5 0.5 0  4 0.5 0  4.5 0.5 0  5 0.5 0  5.5 0.5 0  6 0.5 0  6.5 0.5 0  7 0.5 0  7.5 0.5 0  8 0.5 0  8.5 0.5 0  9 0.5 0  9.5 0.5 0  10 0.5 0  10.5 0.5 0  11 0.5 0  11.5 0.5 0  12 0.5 0  12.5 0.5 0  13 0.5 0  13.5 0.5 0  14 0.5 0  14.5 0.5 0  15 0.5 0  15.5 0.5 0  16 0.5 0  16.5 0.5 0  17 0.5 0  17.5 0.5 0  18 0.5 0  18.5 0.5 0  19 0.5 0  19.5 0.5 0  20 0.5 0  0 1 0  0.5 1 0  1 1 0  1.5 1 0  2 1 0  2.5 1 0  3 1 0  3.5 1 0  4 1 0  4.5 1 0  5 1 0  5.5 1 0  6 1 0  6.5 1 0  7 1 0  7.5 1 0  8 1 0  8.5 1 0  9 1 0  9.5 1 0  10 1 0  10.5 1 0  11 1 0  11.5 1 0  12 1 0  12.5 1 0  13 1 0  13.5 1 0  14 1 0  14.5 1 0  15 1 0  15.5 1 0  16 1 0  16.5 1 0  17 1 0  17.5 1 0  18 1 0  18.5 1 0  19 1 0  19.5 1 0  20 1 0  0 1.5 0  0.5 1.5 0  1 1.5 0  1.5 1.5 0  2 1.5 0  2.5 1.5 0  3 1.5 0  3.5 1.5 0  4 1.5 0  4.5 1.5 0  5 1.5 0  5.5 1.5 0  6 1.5 0  6.5 1.5 0  7 1.5 0  7.5 1.5 0  8 1.5 0  8.5 1.5 0  9 1.5 0  9.5 1.5 0  10 1.5 0  10.5 1.5 0  11 1.5 0  11.5 1.5 0  12 1.5 0  12.5 1.5 0  13 1.5 0  13.5 1.5 0  14 1.5 0  14.5 1.5 0  15 1.5 0  15.5 1.5 0  16 1.5 0  16.5 1.5 0  17 1.5 0  17.5 1.5 0  18 1.5 0  18.5 1.5 0  19 1.5 0  19.5 1.5 0  20 1.5 0  0 2 0  0.5 2 0  1 2 0  1.5 2 0  2 2 0  2.5 2 0  3 2 0  3.5 2 0  4 2 0  4.5 2 0  5 2 0  5.5 2 0  6 2 0  6.5 2 0  7 2 0  7.5 2 0  8 2 0  8.5 2 0  9 2 0  9.5 2 0  10 2 0  10.5 2 0  11 2 0  11.5 2 0  12 2 0  12.5 2 0  13 2 0  13.5 2 0  14 2 0  14.5 2 0  15 2 0  15.5 2 0  16 2 0  16.5 2 0  17 2 0  17.5 2 0  18 2 0  18.5 2 0  19 2 0  19.5 2 0  20 2 0  0 2.5 0  0.5 2.5 0  1 2.5 0  1.5 2.5 0  2 2.5 0  2.5 2.5 0  3 2.5 0  3.5 2.5 0  4 2.5 0  4.5 2.5 0  5 2.5 0  5.5 2.5 0  6 2.5 0  6.5 2.5 0  7 2.5 0  7.5 2.5 0  8 2.5 0  8.5 2.5 0  9 2.5 0  9.5 2.5 0  10 2.5 0  10.5 2.5 0  11 2.5 0  11.5 2.5 0  12 2.5 0  12.5 2.5 0  13 2.5 0  13.5 2.5 0  14 2.5 0  14.5 2.5 0  15 2.5 0  15.5 2.5 0  16 2.5 0  16.5 2.5 0  17 2.5 0  17.5 2.5 0  18 2.5 0  18.5 2.5 0  19 2.5 0  19.5 2.5 0  20 2.5 0  0 3 0  0.5 3 0  1 3 0  1.5 3 0  2 3 0  2.5 3 0  3 3 0  3.5 3 0  4 3 0  4.5 3 0  5 3 0  5.5 3 0  6 3 0  6.5 3 0  7 3 0  7.5 3 0  8 3 0  8.5 3 0  9 3 0  9.5 3 0  10 3 0  10.5 3 0  11 3 0  11.5 3 0  12 3 0  12.5 3 0  13 3 0  13.5 3 0  14 3 0  14.5 3 0  15 3 0  15.5 3 0  16 3 0  16.5 3 0  17 3 0  17.5 3 0  18 3 0  18.5 3 0  19 3 0  19.5 3 0  20 3 0  0 3.5 0  0.5 3.5 0  1 3.5 0  1.5 3.5 0  2 3.5 0  2.5 3.5 0  3 3.5 0  3.5 3.5 0  4 3.5 0  4.5 3.5 0  5 3.5 0  5.5 3.5 0  6 3.5 0  6.5 3.5 0  7 3.5 0  7.5 3.5 0  8 3.5 0  8.5 3.5 0  9 3.5 0  9.5 3.5 0  10 3.5 0  10.5 3.5 0  11 3.5 0  11.5 3.5 0  12 3.5 0  12.5 3.5 0  13 3.5 0  13.5 3.5 0  14 3.5 0  14.5 3.5 0  15 3.5 0  15.5 3.5 0  16 3.5 0  16.5 3.5 0  17 3.5 0  17.5 3.5 0  18 3.5 0  18.5 3.5 0  19 3.5 0  19.5 3.5 0  20 3.5 0  0 4 0  0.5 4 0  1 4 0  1.5 4 0  2 4 0  2.5 4 0  3 4 0  3.5 4 0  4 4 0  4.5 4 0  5 4 0  5.5 4 0  6 4 0  6.5 4 0  7 4 0  7.5 4 0  8 4 0  8.5 4 0  9 4 0  9.5 4 0  10 4 0  10.5 4 0  11 4 0  11.5 4 0  12 4 0  12.5 4 0  13 4 0  13.5 4 0  14 4 0  14.5 4 0  15 4 0  15.5 4 0  16 4 0  16.5 4 0  17 4 0  17.5 4 0  18 4 0  18.5 4 0  19 4 0  19.5 4 0  20 4 0  0 4.5 0  0.5 4.5 0  1 4.5 0  1.5 4.5 0  2 4.5 0  2.5 4.5 0  3 4.5 0  3.5 4.5 0  4 4.5 0  4.5 4.5 0  5 4.5 0  5.5 4.5 0  6 4.5 0  6.5 4.5 0  7 4.5 0  7.5 4.5 0  8 4.5 0  8.5 4.5 0  9 4.5 0  9.5 4.5 0  10 4.5 0  10.5 4.5 0  11 4.5 0  11.5 4.5 0  12 4.5 0  12.5 4.5 0  13 4.5 0  13.5 4.5 0  14 4.5 0  14.5 4.5 0  15 4.5 0  15.5 4.5 0  16 4.5 0  16.5 4.5 0  17 4.5 0  17.5 4.5 0  18 4.5 0  18.5 4.5 0  19 4.5 0  19.5 4.5 0  20 4.5 0  0 5 0  0.5 5 0  1 5 0  1.5 5 0  2 5 0  2.5 5 0  3 5 0  3.5 5 0  4 5 0  4.5 5 0  5 5 0  5.5 5 0  6 5 0  6.5 5 0  7 5 0  7.5 5 0  8 5 0  8.5 5 0  9 5 0  9.5 5 0  10 5 0  10.5 5 0  11 5 0  11.5 5 0  12 5 0  12.5 5 0  13 5 0  13.5 5 0  14 5 0  14.5 5 0  15 5 0  15.5 5 0  16 5 0  16.5 5 0  17 5 0  17.5 5 0  18 5 0  18.5 5 0  19 5 0  19.5 5 0  20 5 0  0 5.5 0  0.5 5.5 0  1 5.5 0  1.5 5.5 0  2 5.5 0  2.5 5.5 0  3 5.5 0  3.5 5.5 0  4 5.5 0  4.5 5.5 0  5 5.5 0  5.5 5.5 0  6 5.5 0  6.5 5.5 0  7 5.5 0  7.5 5.5 0  8 5.5 0  8.5 5.5 0  9 5.5 0  9.5 5.5 0  10 5.5 0  10.5 5.5 0  11 5.5 0  11.5 5.5 0  12 5.5 0  12.5 5.5 0  13 5.5 0  13.5 5.5 0  14 5.5 0  14.5 5.5 0  15 5.5 0  15.5 5.5 0  16 5.5 0  16.5 5.5 0  17 5.5 0  17.5 5.5 0  18 5.5 0  18.5 5.5 0  19 5.5 0  19.5 5.5 0  20 5.5 0  0 6 0  0.5 6 0  1 6 0  1.5 6 0  2 6 0  2.5 6 0  3 6 0  3.5 6 0  4 6 0  4.5 6 0  5 6 0  5.5 6 0  6 6 0  6.5 6 0  7 6 0  7.5 6 0  8 6 0  8.5 6 0  9 6 0  9.5 6 0  10 6 0  10.5 6 0  11 6 0  11.5 6 0  12 6 0  12.5 6 0  13 6 0  13.5 6 0  14 6 0  14.5 6 0  15 6 0  15.5 6 0  16 6 0  16.5 6 0  17 6 0  17.5 6 0  18 6 0  18.5 6 0  19 6 0  19.5 6 0  20 6 0  0 6.5 0  0.5 6.5 0  1 6.5 0  1.5 6.5 0  2 6.5 0  2.5 6.5 0  3 6.5 0  3.5 6.5 0  4 6.5 0  4.5 6.5 0  5 6.5 0  5.5 6.5 0  6 6.5 0  6.5 6.5 0  7 6.5 0  7.5 6.5 0  8 6.5 0  8.5 6.5 0  9 6.5 0  9.5 6.5 0  10 6.5 0  10.5 6.5 0  11 6.5 0  11.5 6.5 0  12 6.5 0  12.5 6.5 0  13 6.5 0  13.5 6.5 0  14 6.5 0  14.5 6.5 0  15 6.5 0  15.5 6.5 0  16 6.5 0  16.5 6.5 0  17 6.5 0  17.5 6.5 0  18 6.5 0  18.5 6.5 0  19 6.5 0  19.5 6.5 0  20 6.5 0  0 7 0  0.5 7 0  1 7 0  1.5 7 0  2 7 0  2.5 7 0  3 7 0  3.5 7 0  4 7 0  4.5 7 0  5 7 0  5.5 7 0  6 7 0  6.5 7 0  7 7 0  7.5 7 0  8 7 0  8.5 7 0  9 7 0  9.5 7 0  10 7 0  10.5 7 0  11 7 0  11.5 7 0  12 7 0  12.5 7 0  13 7 0  13.5 7 0  14 7 0  14.5 7 0  15 7 0  15.5 7 0  16 7 0  16.5 7 0  17 7 0  17.5 7 0  18 7 0  18.5 7 0  19 7 0  19.5 7 0  20 7 0  0 7.5 0  0.5 7.5 0  1 7.5 0  1.5 7.5 0  2 7.5 0  2.5 7.5 0  3 7.5 0  3.5 7.5 0  4 7.5 0  4.5 7.5 0  5 7.5 0  5.5 7.5 0  6 7.5 0  6.5 7.5 0  7 7.5 0  7.5 7.5 0  8 7.5 0  8.5 7.5 0  9 7.5 0  9.5 7.5 0  10 7.5 0  10.5 7.5 0  11 7.5 0  11.5 7.5 0  12 7.5 0  12.5 7.5 0  13 7.5 0  13.5 7.5 0  14 7.5 0  14.5 7.5 0  15 7.5 0  15.5 7.5 0  16 7.5 0  16.5 7.5 0  17 7.5 0  17.5 7.5 0  18 7.5 0  18.5 7.5 0  19 7.5 0  19.5 7.5 0  20 7.5 0  0 8 0  0.5 8 0  1 8 0  1.5 8 0  2 8 0  2.5 8 0  3 8 0  3.5 8 0  4 8 0  4.5 8 0  5 8 0  5.5 8 0  6 8 0  6.5 8 0  7 8 0  7.5 8 0  8 8 0  8.5 8 0  9 8 0  9.5 8 0  10 8 0  10.5 8 0  11 8 0  11.5 8 0  12 8 0  12.5 8 0  13 8 0  13.5 8 0  14 8 0  14.5 8 0  15 8 0  15.5 8 0  16 8 0  16.5 8 0  17 8 0  17.5 8 0  18 8 0  18.5 8 0  19 8 0  19.5 8 0  20 8 0  0 8.5 0  0.5 8.5 0  1 8.5 0  1.5 8.5 0  2 8.5 0  2.5 8.5 0  3 8.5 0  3.5 8.5 0  4 8.5 0  4.5 8.5 0  5 8.5 0  5.5 8.5 0  6 8.5 0  6.5 8.5 0  7 8.5 0  7.5 8.5 0  8 8.5 0  8.5 8.5 0  9 8.5 0  9.5 8.5 0  10 8.5 0  10.5 8.5 0  11 8.5 0  11.5 8.5 0  12 8.5 0  12.5 8.5 0  13 8.5 0  13.5 8.5 0  14 8.5 0  14.5 8.5 0  15 8.5 0  15.5 8.5 0  16 8.5 0  16.5 8.5 0  17 8.5 0  17.5 8.5 0  18 8.5 0  18.5 8.5 0  19 8.5 0  19.5 8.5 0  20 8.5 0  0 9 0  0.5 9 0  1 9 0  1.5 9 0  2 9 0  2.5 9 0  3 9 0  3.5 9 0  4 9 0  4.5 9 0  5 9 0  5.5 9 0  6 9 0  6.5 9 0  7 9 0  7.5 9 0  8 9 0  8.5 9 0  9 9 0  9.5 9 0  10 9 0  10.5 9 0  11 9 0  11.5 9 0  12 9 0  12.5 9 0  13 9 0  13.5 9 0  14 9 0  14.5 9 0  15 9 0  15.5 9 0  16 9 0  16.5 9 0  17 9 0  17.5 9 0  18 9 0  18.5 9 0  19 9 0  19.5 9 0  20 9 0  0 9.5 0  0.5 9.5 0  1 9.5 0  1.5 9.5 0  2 9.5 0  2.5 9.5 0  3 9.5 0  3.5 9.5 0  4 9.5 0  4.5 9.5 0  5 9.5 0  5.5 9.5 0  6 9.5 0  6.5 9.5 0  7 9.5 0  7.5 9.5 0  8 9.5 0  8.5 9.5 0  9 9.5 0  9.5 9.5 0  10 9.5 0  10.5 9.5 0  11 9.5 0  11.5 9.5 0  12 9.5 0  12.5 9.5 0  13 9.5 0  13.5 9.5 0  14 9.5 0  14.5 9.5 0  15 9.5 0  15.5 9.5 0  16 9.5 0  16.5 9.5 0  17 9.5 0  17.5 9.5 0  18 9.5 0  18.5 9.5 0  19 9.5 0  19.5 9.5 0  20 9.5 0  0 10 0  0.5 10 0  1 10 0  1.5 10 0  2 10 0  2.5 10 0  3 10 0  3.5 10 0  4 10 0  4.5 10 0  5 10 0  5.5 10 0  6 10 0  6.5 10 0  7 10 0  7.5 10 0  8 10 0  8.5 10 0  9 10 0  9.5 10 0  10 10 0  10.5 10 0  11 10 0  11.5 10 0  12 10 0  12.5 10 0  13 10 0  13.5 10 0  14 10 0  14.5 10 0  15 10 0  15.5 10 0  16 10 0  16.5 10 0  17 10 0  17.5 10 0  18 10 0  18.5 10 0  19 10 0  19.5 10 0  20 10 0  0 10.5 0  0.5 10.5 0  1 10.5 0  1.5 10.5 0  2 10.5 0  2.5 10.5 0  3 10.5 0  3.5 10.5 0  4 10.5 0  4.5 10.5 0  5 10.5 0  5.5 10.5 0  6 10.5 0  6.5 10.5 0  7 10.5 0  7.5 10.5 0  8 10.5 0  8.5 10.5 0  9 10.5 0  9.5 10.5 0  10 10.5 0  10.5 10.5 0  11 10.5 0  11.5 10.5 0  12 10.5 0  12.5 10.5 0  13 10.5 0  13.5 10.5 0  14 10.5 0  14.5 10.5 0  15 10.5 0  15.5 10.5 0  16 10.5 0  16.5 10.5 0  17 10.5 0  17.5 10.5 0  18 10.5 0  18.5 10.5 0  19 10.5 0  19.5 10.5 0  20 10.5 0  0 11 0  0.5 11 0  1 11 0  1.5 11 0  2 11 0  2.5 11 0  3 11 0  3.5 11 0  4 11 0  4.5 11 0  5 11 0  5.5 11 0  6 11 0  6.5 11 0  7 11 0  7.5 11 0  8 11 0  8.5 11 0  9 11 0  9.5 11 0  10 11 0  10.5 11 0  11 11 0  11.5 11 0  12 11 0  12.5 11 0  13 11 0  13.5 11 0  14 11 0  14.5 11 0  15 11 0  15.5 11 0  16 11 0  16.5 11 0  17 11 0  17.5 11 0  18 11 0  18.5 11 0  19 11 0  19.5 11 0  20 11 0  0 11.5 0  0.5 11.5 0  1 11.5 0  1.5 11.5 0  2 11.5 0  2.5 11.5 0  3 11.5 0  3.5 11.5 0  4 11.5 0  4.5 11.5 0  5 11.5 0  5.5 11.5 0  6 11.5 0  6.5 11.5 0  7 11.5 0  7.5 11.5 0  8 11.5 0  8.5 11.5 0  9 11.5 0  9.5 11.5 0  10 11.5 0  10.5 11.5 0  11 11.5 0  11.5 11.5 0  12 11.5 0  12.5 11.5 0  13 11.5 0  13.5 11.5 0  14 11.5 0  14.5 11.5 0  15 11.5 0  15.5 11.5 0  16 11.5 0  16.5 11.5 0  17 11.5 0  17.5 11.5 0  18 11.5 0  18.5 11.5 0  19 11.5 0  19.5 11.5 0  20 11.5 0  0 12 0  0.5 12 0  1 12 0  1.5 12 0  2 12 0  2.5 12 0  3 12 0  3.5 12 0  4 12 0  4.5 12 0  5 12 0  5.5 12 0  6 12 0  6.5 12 0  7 12 0  7.5 12 0  8 12 0  8.5 12 0  9 12 0  9.5 12 0  10 12 0  10.5 12 0  11 12 0  11.5 12 0  12 12 0  12.5 12 0  13 12 0  13.5 12 0  14 12 0  14.5 12 0  
[...]
<PointData  Vectors="f_5623-0"> 
<DataArray  type="Float64"  Name="f_5623-0"  NumberOfComponents="3" format="ascii">0.0000000000000000e+00 0.0000000000000000e+00 0.0000000000000000e+00  2.9525323980334722e-07 0.0000000000000000e+00 0.0000000000000000e+00  1.5691900921738887e-06 0.0000000000000000e+00 0.0000000000000000e+00  5.0349883676386983e-06 0.0000000000000000e+00 0.0000000000000000e+00  1.1774986789449366e-05 0.0000000000000000e+00 0.0000000000000000e+00  2.2853538694230732e-05 0.0000000000000000e+00 0.0000000000000000e+00  3.9317751293518266e-05 0.0000000000000000e+00 0.0000000000000000e+00  6.2191288144429623e-05 0.0000000000000000e+00 0.0000000000000000e+00  9.2468103229367515e-05 0.0000000000000000e+00 0.0000000000000000e+00  1.3110607833399009e-04 0.0000000000000000e+00 0.0000000000000000e+00  1.7902033839195265e-04 0.0000000000000000e+00 0.0000000000000000e+00  2.3707612523805074e-04 0.0000000000000000e+00 0.0000000000000000e+00  3.0608116296683213e-04 0.0000000000000000e+00 0.0000000000000000e+00  3.8677747002995152e-04 0.0000000000000000e+00 0.0000000000000000e+00  4.7983257769820408e-04 0.0000000000000000e+00 0.0000000000000000e+00  5.8583009988269312e-04 0.0000000000000000e+00 0.0000000000000000e+00  7.0525955301215199e-04 0.0000000000000000e+00 0.0000000000000000e+00  8.3850522094319714e-04 0.0000000000000000e+00 0.0000000000000000e+00  9.8583365294661841e-04 0.0000000000000000e+00 0.0000000000000000e+00  1.1473789909231787e-03 0.0000000000000000e+00 0.0000000000000000e+00  1.3231246049166467e-03 0.0000000000000000e+00 0.0000000000000000e+00  1.5128782328547770e-03 0.0000000000000000e+00 0.0000000000000000e+00  1.7162355673975107e-03 0.0000000000000000e+00 0.0000000000000000e+00  1.9325233430566638e-03 0.0000000000000000e+00 0.0000000000000000e+00  2.1607063745529452e-03 0.0000000000000000e+00 0.0000000000000000e+00  2.3992319969043698e-03 0.0000000000000000e+00 0.0000000000000000e+00  2.6457674099629796e-03 0.0000000000000000e+00 0.0000000000000000e+00  2.8967568682829186e-03 0.0000000000000000e+00 0.0000000000000000e+00  3.1466815722224675e-03 0.0000000000000000e+00 0.0000000000000000e+00  3.3868396626478559e-03 0.0000000000000000e+00 0.0000000000000000e+00  3.6033714462243198e-03 0.0000000000000000e+00 0.0000000000000000e+00  3.7741341733284776e-03 0.0000000000000000e+00 0.0000000000000000e+00  3.8638902367200889e-03 0.0000000000000000e+00 0.0000000000000000e+00  3.8171439150400601e-03 0.0000000000000000e+00 0.0000000000000000e+00  3.5479157292956877e-03 0.0000000000000000e+00 0.0000000000000000e+00  2.9259082720128732e-03 0.0000000000000000e+00 0.0000000000000000e+00  1.7590795566313868e-03 0.0000000000000000e+00 0.0000000000000000e+00  -2.2620672308601615e-04 0.0000000000000000e+00 0.0000000000000000e+00  -3.4044904308338482e-03 0.0000000000000000e+00 0.0000000000000000e+00  -8.2649328119818784e-03 0.0000000000000000e+00 0.0000000000000000e+00  -1.5413234054052155e-02 0.0000000000000000e+00 0.0000000000000000e+00  0.0000000000000000e+00 2.9525323833188683e-07 0.0000000000000000e+00  -3.7792286954051233e-07 -3.7792287040090278e-07 0.0000000000000000e+00  3.8393394309151432e-07 -2.0737878070320664e-06 0.0000000000000000e+00  3.3171487075217581e-06 -4.8134091505501105e-06 0.0000000000000000e+00  9.5141575855611696e-06 -8.6159556806134758e-06 0.0000000000000000e+00  2.0047157087192778e-05 -1.3475695516787542e-05 0.0000000000000000e+00  3.5966054007595611e-05 -1.9373689127069722e-05 0.0000000000000000e+00  5.8295712791026008e-05 -2.6283111800102798e-05 0.0000000000000000e+00  8.8031000880063639e-05 -3.4170685410794141e-05 0.0000000000000000e+00  1.2613083998307833e-04 -4.2996744647103622e-05 0.0000000000000000e+00  1.7351165416220729e-04 -5.2714876321055093e-05 0.0000000000000000e+00  2.3104029066752218e-04 -6.3271427957622137e-05 0.0000000000000000e+00  2.9952640426251820e-04 -7.4604980102464674e-05 0.0000000000000000e+00  3.7971427643579631e-04 -8.6645819926878882e-05 0.0000000000000000e+00  4.7227403304008267e-04 -9.9315439600711322e-05 0.0000000000000000e+00  5.7779220584294126e-04 -1.1252608083716894e-04 0.0000000000000000e+00  6.9676153613714852e-04 -1.2618034757500403e-04 0.0000000000000000e+00  8.2956981505130048e-04 -1.4017090947215973e-04 0.0000000000000000e+00  9.7648734871563574e-04 -1.5438031864569343e-04 0.0000000000000000e+00  1.1376522451992616e-03 -1.6868096016992357e-04 0.0000000000000000e+00  1.3130520037045628e-03 -1.8293515364203839e-04 0.0000000000000000e+00  1.5024986035940711e-03 -1.9699541766721231e-04 0.0000000000000000e+00  1.7055920369001807e-03 -2.1070490401516043e-04 0.0000000000000000e+00  1.9216633350649603e-03 -2.2389800415965208e-04 0.0000000000000000e+00  2.1496815310605567e-03 -2.3640113464467880e-04 0.0000000000000000e+00  2.3880979826650345e-03 -2.4803372708502249e-04 0.0000000000000000e+00  2.6345835087551611e-03 -2.5860949893016745e-04 0.0000000000000000e+00  2.8855851879107533e-03 -2.6793818211343166e-04 0.0000000000000000e+00  3.1355855279783483e-03 -2.7582806393505944e-04 0.0000000000000000e+00  3.3758812029447338e-03 -2.8208996537364080e-04 0.0000000000000000e+00  3.5926062540828268e-03 -2.8654363859993297e-04 0.0000000000000000e+00  3.7636039452248354e-03 -2.8902792564382902e-04 0.0000000000000000e+00  3.8536113863743083e-03 -2.8941616047292680e-04 0.0000000000000000e+00  3.8070931750003758e-03 -2.8763776680616027e-04 0.0000000000000000e+00  3.5380157771842612e-03 -2.8370506237519803e-04 0.0000000000000000e+00  2.9160209919663334e-03 -2.7773991357581276e-04 0.0000000000000000e+00  1.7490193603296733e-03 -2.6998675433409898e-04 0.0000000000000000e+00  -2.3662858365883083e-04 -2.6078363838636824e-04 0.0000000000000000e+00  -3.4154085920223513e-03 -2.5042925079290623e-04 0.0000000000000000e+00  -8.2765123702640778e-03 -2.3877706447651914e-04 0.0000000000000000e+00  -1.5426406095421383e-02 -2.2399087871144123e-04 0.0000000000000000e+00  0.0000000000000000e+00 1.5691900925875923e-06 0.0000000000000000e+00  -2.0737878074749499e-06 3.8393394386008989e-07 0.0000000000000000e+00  -2.9622736410252221e-06 -2.9622736408848264e-06 0.0000000000000000e+00  -1.6650556099103814e-06 -8.4525769045908303e-06 0.0000000000000000e+00  2.8962882017025939e-06 -1.6076744293880167e-05 0.0000000000000000e+00  1.1792304220113710e-05 -2.5810849023145048e-05 0.0000000000000000e+00  2.6074778351229408e-05 -3.7617011838534238e-05 0.0000000000000000e+00  4.6771087200805330e-05 -5.1443820047910465e-05 0.0000000000000000e+00  7.4878914222865160e-05 -6.7226679394431890e-05 0.0000000000000000e+00  1.1136047980103250e-04 -8.4887694477991054e-05 0.0000000000000000e+00  1.5713618491550193e-04 -1.0433512088538826e-04 0.0000000000000000e+00  2.1307767101775522e-04 -1.2546254637243627e-04 0.0000000000000000e+00  2.8000029255978074e-04 -1.4814793297518946e-04 0.0000000000000000e+00  3.5865498548082013e-04 -1.7225261241357392e-04 0.0000000000000000e+00  4.4971950234127075e-04 -1.9762030237882372e-04 0.0000000000000000e+00  5.5378896214962944e-04 -2.2407620057114563e-04 0.0000000000000000e+00  6.7136561346850467e-04 -2.5142620947223504e-04 0.0000000000000000e+00  8.0284760518199358e-04 -2.7945634432217437e-04 0.0000000000000000e+00  9.4851635310757481e-04 -3.0793237632379273e-04 0.0000000000000000e+00  1.1085217004400153e-03 -3.3659976156796487e-04 0.0000000000000000e+00  1.2828633544502827e-03 -3.6518390292654320e-04 0.0000000000000000e+00  1.4713657987380734e-03 -3.9339078742511543e-04 0.0000000000000000e+00  1.6736416240272273e-03 -4.2090803764317829e-04 0.0000000000000000e+00  1.8890343197175835e-03 -4.4740641620841069e-04 0.0000000000000000e+00  2.1165249422793282e-03 -4.7254183568526978e-04 0.0000000000000000e+00  2.3545760301500050e-03 -4.9595796431937185e-04 0.0000000000000000e+00  2.6008681099810396e-03 -5.1728959956841053e-04 0.0000000000000000e+00  2.8518554618905071e-03 -5.3616712714289934e-04 0.0000000000000000e+00  3.1020235785675686e-03 -5.5222261192655760e-04 0.0000000000000000e+00  3.3426651588376287e-03 -5.6509837264284832e-04 0.0000000000000000e+00  3.5598991755336341e-03 -5.7445921364780988e-04 0.0000000000000000e+00  3.7315370657074456e-03 -5.8000964684005410e-04 0.0000000000000000e+00  3.8222606570213979e-03 -5.8151707460436287e-04 0.0000000000000000e+00  3.7764498761297706e-03 -5.7884042316887836e-04 0.0000000000000000e+00  3.5079557801824040e-03 -5.7196029604078503e-04 0.0000000000000000e+00  2.8862834220062059e-03 -5.6100042177531755e-04 0.0000000000000000e+00  1.7192133215100961e-03 -5.4621988873672605e-04 0.0000000000000000e+00  -2.6696117481162565e-04 -5.2793909821595300e-04 0.0000000000000000e+00  -3.4466252549053395e-03 -5.0633305903750642e-04 0.0000000000000000e+00  -8.3084511982097018e-03 -4.8097138602244032e-04 0.0000000000000000e+00  -1.5457020181560576e-02 -4.4992519183665203e-04 0.0000000000000000e+00  0.0000000000000000e+00 5.0349883693573434e-06 0.0000000000000000e+00  -4.8134091502376595e-06 3.3171487078630725e-06 0.0000000000000000e+00  -8.4525769028513042e-06 -1.6650556121774317e-06 0.0000000000000000e+00  -9.8892055280952885e-06 -9.8892055301689742e-06 0.0000000000000000e+00  -8.0566291120644810e-06 -2.1326782123597843e-05 0.0000000000000000e+00  -1.8870364422598817e-06 -3.5935111836682189e-05 0.0000000000000000e+00  9.6718996950961517e-06 -5.3654296172164835e-05 0.0000000000000000e+00  2.7649967752574338e-05 -7.4406712017284276e-05 0.0000000000000000e+00  5.3048656898181342e-05 -9.8096358912205434e-05 0.0000000000000000e+00  8.6835278588239843e-05 -1.2460788782456687e-04 0.0000000000000000e+00  1.2993666291666591e-04 -1.5380539365444129e-04 0.0000000000000000e+00  1.8323231847412700e-04 -1.8553103507206405e-04 0.0000000000000000e+00  2.4754699923626553e-04 -2.1960354516040729e-04 0.0000000000000000e+00  3.2364263902111539e-04 -2.5581670247355531e-04 0.0000000000000000e+00  4.1220961361703373e-04 -2.9393783681829860e-04 0.0000000000000000e+00  5.1385727277285188e-04 -3.3370644731096227e-04 0.0000000000000000e+00  6.2910363631727415e-04 -3.7483301341018088e-04 0.0000000000000000e+00  7.5836404530755608e-04 -4.1699808279351008e-04 0.0000000000000000e+00  9.0193835383144941e-04 -4.5985172228416710e-04 0.0000000000000000e+00  1.0599958577778327e-03 -5.0301341936844109e-04 0.0000000000000000e+00  1.2325564417855948e-03 -5.4607252108999720e-04 0.0000000000000000e+00  1.4194651414052612e-03 -5.8858929586584402e-04 0.0000000000000000e+00  1.6203550567853772e-03 -6.3009670345018636e-04 0.0000000000000000e+00  1.8345896426124172e-03 -6.7010296380584286e-04 0.0000000000000000e+00  2.0611687517050202e-03 -7.0809503474355824e-04 0.0000000000000000e+00  2.2985717272047618e-03 -7.4354315214539887e-04 0.0000000000000000e+00  2.5444927584786299e-03 -7.7590666968310002e-04 0.0000000000000000e+00  2.7953949672145568e-03 -8.0464156946118614e-04 0.0000000000000000e+00  3.0457653845219709e-03 -8.2921020129436912e-04 0.0000000000000000e+00  3.2868873547933094e-03 -8.4909401219661210e-04 0.0000000000000000e+00  3.5048547018108481e-03 -8.6381014790187587e-04 0.0000000000000000e+00  3.6774318820198080e-03 -8.7293262957786942e-04 0.0000000000000000e+00  3.7692257782705918e-03 -8.7611796743107605e-04 0.0000000000000000e+00  3.7245097417002615e-03 -8.7313306486349804e-04 0.0000000000000000e+00  3.4570001577188380e-03 -8.6387956456734146e-04 0.0000000000000000e+00  2.8360571975150966e-03 -8.4840307917378153e-04 0.0000000000000000e+00  1.6693475813251075e-03 -8.2686820689323098e-04 0.0000000000000000e+00  -3.1684312138768400e-04 -7.9947171699103160e-04 0.0000000000000000e+00  -3.4966803204062244e-03 -7.6625950074029172e-04 0.0000000000000000e+00  -8.3581985566318680e-03 -7.2682033570256762e-04 0.0000000000000000e+00  -1.5504632759905395e-02 -6.7991042030159142e-04 0.0000000000000000e+00  0.0000000000000000e+00 1.1774986789489432e-05 0.0000000000000000e+00  -8.6159556794162811e-06 9.5141575843187654e-06 0.0000000000000000e+00  -1.6076744292021668e-05 2.8962881985363280e-06 0.0000000000000000e+00  -2.1326782122732548e-05 -8.0566291128346339e-06 0.0000000000000000e+00  -2.3303091350890255e-05 -2.3303091350641241e-05 0.0000000000000000e+00  -2.0939738866353917e-05 -4.2783659257482860e-05 0.0000000000000000e+00  -1.3183451418806172e-05 -6.6417829432218001e-05 0.0000000000000000e+00  9.9852727913979179e-07 -9.4102735017857845e-05 0.0000000000000000e+00  2.2612466745059739e-05 -1.2571188824470715e-04 0.0000000000000000e+00  5.2632317913053759e-05 -1.6109364419794034e-04 0.0000000000000000e+00  9.1993522995092734e-05 -2.0006939840672090e-04 0.0000000000000000e+00  1.4158630003437034e-04 -2.4243159476969157e-04 0.0000000000000000e+00  2.0224831999549259e-04 -2.8794162376171150e-04 0.0000000000000000e+00  2.7475671885008148e-04 -3.3632769138397148e-04 0.0000000000000000e+00  3.5981939067457601e-04 -3.8728274528131282e-04 0.0000000000000000e+00  4.5806549225436359e-04 -4.4046255341328956e-04 0.0000000000000000e+00  5.7003504352327330e-04 -4.9548404038490389e-04 0.0000000000000000e+00  6.9616740615297359e-04 -5.5192399574711449e-04 0.0000000000000000e+00  8.3678821842035937e-04 -6.0931827650270904e-04 0.0000000000000000e+00  9.9209397621706952e-04 -6.6716163217531393e-04 0.0000000000000000e+00  1.1621327348955164e-03 -7.2490828494776603e-04 0.0000000000000000e+00  1.3467781213232658e-03 -7.8197340044173645e-04 0.0000000000000000e+00  1.5456915795671903e-03 -8.3773558822244009e-04 0.0000000000000000e+00  1.7582638513685479e-03 -8.9154057900774162e-04 0.0000000000000000e+00  1.9835200255917487e-03 -9.4270624350318503e-04 0.0000000000000000e+00  2.2199613771501634e-03 -9.9052915332195060e-04 0.0000000000000000e+00  2.4652990937944629e-03 -1.0342929447208998e-03 0.0000000000000000e+00  2.7160061943351183e-03 -1.0732788319520418e-03 0.0000000000000000e+00  2.9665696088451727e-03 -1.1067787129480403e-03 0.0000000000000000e+00  3.2082588073671769e-03 -1.1341113639156770e-03 0.0000000000000000e+00  3.4271353596672235e-03 -1.1546421190082924e-03 0.0000000000000000e+00  3.6009081774165488e-03 -1.1678059806990611e-03 0.0000000000000000e+00  3.6941015236637434e-03 -1.1731330302897499e-03 0.0000000000000000e+00  3.6508792321650837e-03 -1.1702730233509144e-03 0.0000000000000000e+00  3.3848299887492424e-03 -1.1590130655492919e-03 0.0000000000000000e+00  2.7651913764318759e-03 -1.1392786990767291e-03 0.0000000000000000e+00  1.5995565001885377e-03 -1.1111059538499398e-03 0.0000000000000000e+00  -3.8574672910304987e-04 -1.0745726488177935e-03 0.0000000000000000e+00  -3.5646420898725164e-03 -1.0296864956924226e-03 0.0000000000000000e+00  -8.4246483853191601e-03 -9.7625688701696931e-04 0.0000000000000000e+00  -1.5568199226753354e-02 -9.1385969399859724e-04 0.0000000000000000e+00  0.0000000000000000e+00 2.2853538690659374e-05 0.0000000000000000e+00  -1.3475695518238703e-05 2.0047157088962308e-05 0.0000000000000000e+00  -2.5810849025869089e-05 1.1792304218864106e-05 0.0000000000000000e+00  -3.5935111839868307e-05 -1.8870364432285120e-06 0.0000000000000000e+00  -4.2783659259219867e-05 -2.0939738866035280e-05 0.0000000000000000e+00  -4.5291440660515636e-05 -4.5291440660677968e-05 0.0000000000000000e+00  -4.2403898357811766e-05 -7.4842671247821147e-05 0.0000000000000000e+00  -3.3084767433882065e-05 -1.0946705064240211e-04 0.0000000000000000e+00  -1.6322056578306229e-05 -1.4900947870587512e-04 0.0000000000000000e+00  8.8662546731822666e-06 -1.9328404818847573e-04 0.0000000000000000e+00  4.3426217525793141e-05 -2.4207166703456491e-04 0.0000000000000000e+00  8.8261388056127922e-05 -2.9511745539735108e-04 0.0000000000000000e+00  1.4422566270207995e-04 -3.5212800379695651e-04 0.0000000000000000e+00  2.1211540035271105e-04 -4.1276858856377811e-04 0.0000000000000000e+00  2.9266076289845478e-04 -4.7666045071079996e-04 0.0000000000000000e+00  3.8651619106479463e-04 -5.4337825687369057e-04 0.0000000000000000e+00  4.9424988633058704e-04 -6.1244787477734107e-04 0.0000000000000000e+00  6.1633206805693599e-04 -6.8334461018931239e-04 0.0000000000000000e+00  7.5312157117351066e-04 -7.5549206576932388e-04 0.0000000000000000e+00  9.0484996210331140e-04 -8.2826179417069953e-04 0.0000000000000000e+00  1.0716016355766756e-03 -9.0097392745245490e-04 0.0000000000000000e+00  1.2532870684572744e-03 -9.7289897256269524e-04 0.0000000000000000e+00  1.4496041369263600e-03 -1.0432609690402975e-03 0.0000000000000000e+00  1.6599784733790956e-03 -1.1112422122717151e-03 0.0000000000000000e+00  1.8834671587421338e-03 -1.1759897563472269e-03 0.0000000000000000e+00  2.1185989129597132e-03 -1.2366239274707075e-03 0.0000000000000000e+00  2.3631058023230950e-03 -1.2922491024008323e-03 0.0000000000000000e+00  2.6134726740229485e-03 -1.3419670279341636e-03 0.0000000000000000e+00  2.8641862148567048e-03 -1.3848929525357382e-03 0.0000000000000000e+00  3.1065000445771665e-03 -1.4201747540882497e-03 0.0000000000000000e+00  3.3264404951569471e-03 -1.4470149813524829e-03 0.0000000000000000e+00  3.5016585739593049e-03 -1.4646951412727869e-03 0.0000000000000000e+00  3.5965967176083704e-03 -1.4726005136319338e-03 0.0000000000000000e+00  3.5553163324264113e-03 -1.4702422175061477e-03 0.0000000000000000e+00  3.2912945132173299e-03 -1.4572714728757394e-03 0.0000000000000000e+00  2.6736713659103154e-03 -1.4334799107663580e-03 0.0000000000000000e+00  1.5099934866179996e-03 -1.3987811713825325e-03 0.0000000000000000e+00  -4.7336062120277730e-04 -1.3531754119447831e-03 0.0000000000000000e+00  -3.6501275114185806e-03 -1.2967123951049566e-03 0.0000000000000000e+00  -8.5075006250078643e-03 -1.2294936067590528e-03 0.0000000000000000e+00  -1.5647532925078041e-02 -1.1517974562854263e-03 0.0000000000000000e+00  0.0000000000000000e+00 3.9317751291545750e-05 0.0000000000000000e+00  -1.9373689124876221e-05 3.5966054006592730e-05 0.0000000000000000e+00  -3.7617011837300328e-05 2.6074778349958482e-05 0.0000000000000000e+00  -5.3654296171447656e-05 9.6718996952093136e-06 0.0000000000000000e+00  -6.6417829431424406e-05 -1.3183451421129602e-05 0.0000000000000000e+00  -7.4842671248450852e-05 -4.2403898357035551e-05 0.0000000000000000e+00  -7.7872875888666706e-05 -7.7872875885048751e-05 0.0000000000000000e+00  -7.4468416684252606e-05 -1.1944259133026020e-04 0.0000000000000000e+00  -6.3610928520728251e-05 -1.6693171520673676e-04 0.0000000000000000e+00  -4.4309168452626873e-05 -2.2012273513408355e-04 0.0000000000000000e+00  -1.5604750331120212e-05 -2.7875897647239360e-04 0.0000000000000000e+00  2.3421583092488561e-05 -3.4254135369532501e-04 0.0000000000000000e+00  7.3643010680168880e-05 -4.1112494352681220e-04 0.0000000000000000e+00  1.3587891050694675e-04 -4.8411548776204508e-04 0.0000000000000000e+00  2.1088627872151115e-04 -5.6106594964434821e-04 0.0000000000000000e+00  2.9935018929435210e-04 -6.4147326538066020e-04 0.0000000000000000e+00  4.0187314772666940e-04 -7.2477545177670045e-04 0.0000000000000000e+00  5.1896308977359058e-04 -8.1034925101396203e-04 0.0000000000000000e+00  6.5101957227542320e-04 -8.9750851334057858e-04 0.0000000000000000e+00  7.9831731578977139e-04 -9.8550353665837094e-04 0.0000000000000000e+00  9.6098554388763309e-04 -1.0735215978027888e-03 0.0000000000000000e+00  1.1389802772050629e-03 -1.1606889227377996e-03 0.0000000000000000e+00  1.3320444694360594e-03 -1.2460743514559126e-03 0.0000000000000000e+00  1.5396469393014994e-03 -1.3286949581226147e-03 0.0000000000000000e+00  1.7608843671132733e-03 -1.4075238871522409e-03 0.0000000000000000e+00  1.9943194863907563e-03 -1.4815006600482207e-03 0.0000000000000000e+00  2.2377104567146513e-03 -1.5495441907551889e-03 0.0000000000000000e+00  2.4875576116196673e-03 -1.6105687053429971e-03 0.0000000000000000e+00  2.7383495161009889e-03 -1.6635026684523227e-03 0.0000000000000000e+00  2.9813249073933892e-03 -1.7073106270263792e-03 0.0000000000000000e+00  3.2024755754608831e-03 -1.7410175238795867e-03 0.0000000000000000e+00  3.3793964833918832e-03 -1.7637344379250440e-03 0.0000000000000000e+00  3.4764530861532243e-03 -1.7746838521048173e-03 0.0000000000000000e+00  3.4376137759185503e-03 -1.7732215809429771e-03 0.0000000000000000e+00  3.1