<?xml version="1.0"?>
<VTKFile type="UnstructuredGrid"  version="0.1"  >
<UnstructuredGrid>
<Piece  NumberOfPoints="1681" NumberOfCells="3200">
<Points>
<DataArray  type="Float64"  NumberOfComponents="3"  format="ascii">0 0 0  0.5 0 0  1 0 0  1.5 0 0  2 0 0  2.5 0 0  3 0 0  3.5 0 0  4 0 0  4.5 0 0  5 0 0  5.5 0 0  6 0 0  6.5 0 0  7 0 0  7.5 0 0  8 0 0  8.5 0 0  9 0 0  9.5 0 0  10 0 0  10.5 0 0  11 0 0  11.5 0 0  12 0 0  12.5 0 0  13 0 0  13.5 0 0  14 0 0  14.5 0 0  15 0 0  15.5 0 0  16 0 0  16.5 0 0  17 0 0  17.5 0 0  18 0 0  18.5 0 0  19 0 0  19.5 0 0  20 0 0  0 0.5 0  0.5 0.5 0  1 0.5 0  1.5 0.5 0  2 0.5 0  2.5 0.5 0  3 0.5 0  3.5 0.5 0  4 0.5 0  4.5 0.5 0  5 0.5 0  5.5 0.5 0  6 0.5 0  6.5 0.5 0  7 0.5 0  7.5 0.5 0  8 0.5 0  8.5 0.5 0  9 0.5 0  9.5 0.5 0  10 0.5 0  10.5 0.5 0  11 0.5 0  11.5 0.5 0  12 0.5 0  12.5 0.5 0  13 0.5 0  13.5 0.5 0  14 0.5 0  14.5 0.5 0  15 0.5 0  15.5 0.5 0  16 0.5 0  16.5 0.5 0  17 0.5 0  17.5 0.5 0  18 0.5 0  18.5 0.5 0  19 0.5 0  19.5 0.5 0  20 0.5 0  0 1 0  0.5 1 0  1 1 0  1.5 1 0  2 1 0  2.5 1 0  3 1 0  3.5 1 0  4 1 0  4.5 1 0  5 1 0  5.5 1 0  6 1 0  6.5 1 0  7 1 0  7.5 1 0  8 1 0  8.5 1 0  9 1 0  9.5 1 0  10 1 0  10.5 1 0  11 1 0  11.5 1 0  12 1 0  12.5 1 0  13 1 0  13.5 1 0  14 1 0  14.5 1 0  15 1 0  15.5 1 0  16 1 0  16.5 1 0  17 1 0  17.5 1 0  18 1 0  18.5 1 0  19 1 0  19.5 1 0  20 1 0  0 1.5 0  0.5 1.5 0  1 1.5 0  1.5 1.5 0  2 1.5 0  2.5 1.5 0  3 1.5 0  3.5 1.5 0  4 1.5 0  4.5 1.5 0  5 1.5 0  5.5 1.5 0  6 1.5 0  6.5 1.5 0  7 1.5 0  7.5 1.5 0  8 1.5 0  8.5 1.5 0  9 1.5 0  9.5 1.5 0  10 1.5 0  10.5 1.5 0  11 1.5 0  11.5 1.5 0  12 1.5 0  12.5 1.5 0  13 1.5 0  13.5 1.5 0  14 1.5 0  14.5 1.5 0  15 1.5 0  15.5 1.5 0  16 1.5 0  16.5 1.5 0  17 1.5 0  17.5 1.5 0  18 1.5 0  18.5 1.5 0  19 1.5 0  19.5 1.5 0  20 1.5 0  0 2 0  0.5 2 0  1 2 0  1.5 2 0  2 2 0  2.5 2 0  3 2 0  3.5 2 0  4 2 0  4.5 2 0  5 2 0  5.5 2 0  6 2 0  6.5 2 0  7 2 0  7.5 2 0  8 2 0  8.5 2 0  9 2 0  9.5 2 0  10 2 0  10.5 2 0  11 2 0  11.5 2 0  12 2 0  12.5 2 0  13 2 0  13.5 2 0  14 2 0  14.5 2 0  15 2 0  15.5 2 0  16 2 0  16.5 2 0  17 2 0  17.5 2 0  18 2 0  18.5 2 0  19 2 0  19.5 2 0  20 2 0  0 2.5 0  0.5 2.5 0  1 2.5 0  1.5 2.5 0  2 2.5 0  2.5 2.5 0  3 2.5 0  3.5 2.5 0  4 2.5 0  4.5 2.5 0  5 2.5 0  5.5 2.5 0  6 2.5 0  6.5 2.5 0  7 2.5 0  7.5 2.5 0  8 2.5 0  8.5 2.5 0  9 2.5 0  9.5 2.5 0  10 2.5 0  10.5 2.5 0  11 2.5 0  11.5 2.5 0  12 2.5 0  12.5 2.5 0  13 2.5 0  13.5 2.5 0  14 2.5 0  14.5 2.5 0  15 2.5 0  15.5 2.5 0  16 2.5 0  16.5 2.5 0  17 2.5 0  17.5 2.5 0  18 2.5 0  18.5 2.5 0  19 2.5 0  19.5 2.5 0  20 2.5 0  0 3 0  0.5 3 0  1 3 0  1.5 3 0  2 3 0  2.5 3 0  3 3 0  3.5 3 0  4 3 0  4.5 3 0  5 3 0  5.5 3 0  6 3 0  6.5 3 0  7 3 0  7.5 3 0  8 3 0  8.5 3 0  9 3 0  9.5 3 0  10 3 0  10.5 3 0  11 3 0  11.5 3 0  12 3 0  12.5 3 0  13 3 0  13.5 3 0  14 3 0  14.5 3 0  15 3 0  15.5 3 0  16 3 0  16.5 3 0  17 3 0  17.5 3 0  18 3 0  18.5 3 0  19 3 0  19.5 3 0  20 3 0  0 3.5 0  0.5 3.5 0  1 3.5 0  1.5 3.5 0  2 3.5 0  2.5 3.5 0  3 3.5 0  3.5 3.5 0  4 3.5 0  4.5 3.5 0  5 3.5 0  5.5 3.5 0  6 3.5 0  6.5 3.5 0  7 3.5 0  7.5 3.5 0  8 3.5 0  8.5 3.5 0  9 3.5 0  9.5 3.5 0  10 3.5 0  10.5 3.5 0  11 3.5 0  11.5 3.5 0  12 3.5 0  12.5 3.5 0  13 3.5 0  13.5 3.5 0  14 3.5 0  14.5 3.5 0  15 3.5 0  15.5 3.5 0  16 3.5 0  16.5 3.5 0  17 3.5 0  17.5 3.5 0  18 3.5 0  18.5 3.5 0  19 3.5 0  19.5 3.5 0  20 3.5 0  0 4 0  0.5 4 0  1 4 0  1.5 4 0  2 4 0  2.5 4 0  3 4 0  3.5 4 0  4 4 0  4.5 4 0  5 4 0  5.5 4 0  6 4 0  6.5 4 0  7 4 0  7.5 4 0  8 4 0  8.5 4 0  9 4 0  9.5 4 0  10 4 0  10.5 4 0  11 4 0  11.5 4 0  12 4 0  12.5 4 0  13 4 0  13.5 4 0  14 4 0  14.5 4 0  15 4 0  15.5 4 0  16 4 0  16.5 4 0  17 4 0  17.5 4 0  18 4 0  18.5 4 0  19 4 0  19.5 4 0  20 4 0  0 4.5 0  0.5 4.5 0  1 4.5 0  1.5 4.5 0  2 4.5 0  2.5 4.5 0  3 4.5 0  3.5 4.5 0  4 4.5 0  4.5 4.5 0  5 4.5 0  5.5 4.5 0  6 4.5 0  6.5 4.5 0  7 4.5 0  7.5 4.5 0  8 4.5 0  8.5 4.5 0  9 4.5 0  9.5 4.5 0  10 4.5 0  10.5 4.5 0  11 4.5 0  11.5 4.5 0  12 4.5 0  12.5 4.5 0  13 4.5 0  13.5 4.5 0  14 4.5 0  14.5 4.5 0  15 4.5 0  15.5 4.5 0  16 4.5 0  16.5 4.5 0  17 4.5 0  17.5 4.5 0  18 4.5 0  18.5 4.5 0  19 4.5 0  19.5 4.5 0  20 4.5 0  0 5 0  0.5 5 0  1 5 0  1.5 5 0  2 5 0  2.5 5 0  3 5 0  3.5 5 0  4 5 0  4.5 5 0  5 5 0  5.5 5 0  6 5 0  6.5 5 0  7 5 0  7.5 5 0  8 5 0  8.5 5 0  9 5 0  9.5 5 0  10 5 0  10.5 5 0  11 5 0  11.5 5 0  12 5 0  12.5 5 0  13 5 0  13.5 5 0  14 5 0  14.5 5 0  15 5 0  15.5 5 0  16 5 0  16.5 5 0  17 5 0  17.5 5 0  18 5 0  18.5 5 0  19 5 0  19.5 5 0  20 5 0  0 5.5 0  0.5 5.5 0  1 5.5 0  1.5 5.5 0  2 5.5 0  2.5 5.5 0  3 5.5 0  3.5 5.5 0  4 5.5 0  4.5 5.5 0  5 5.5 0  5.5 5.5 0  6 5.5 0  6.5 5.5 0  7 5.5 0  7.5 5.5 0  8 5.5 0  8.5 5.5 0  9 5.5 0  9.5 5.5 0  10 5.5 0  10.5 5.5 0  11 5.5 0  11.5 5.5 0  12 5.5 0  12.5 5.5 0  13 5.5 0  13.5 5.5 0  14 5.5 0  14.5 5.5 0  15 5.5 0  15.5 5.5 0  16 5.5 0  16.5 5.5 0  17 5.5 0  17.5 5.5 0  18 5.5 0  18.5 5.5 0  19 5.5 0  19.5 5.5 0  20 5.5 0  0 6 0  0.5 6 0  1 6 0  1.5 6 0  2 6 0  2.5 6 0  3 6 0  3.5 6 0  4 6 0  4.5 6 0  5 6 0  5.5 6 0  6 6 0  6.5 6 0  7 6 0  7.5 6 0  8 6 0  8.5 6 0  9 6 0  9.5 6 0  10 6 0  10.5 6 0  11 6 0  11.5 6 0  12 6 0  12.5 6 0  13 6 0  13.5 6 0  14 6 0  14.5 6 0  15 6 0  15.5 6 0  16 6 0  16.5 6 0  17 6 0  17.5 6 0  18 6 0  18.5 6 0  19 6 0  19.5 6 0  20 6 0  0 6.5 0  0.5 6.5 0  1 6.5 0  1.5 6.5 0  2 6.5 0  2.5 6.5 0  3 6.5 0  3.5 6.5 0  4 6.5 0  4.5 6.5 0  5 6.5 0  5.5 6.5 0  6 6.5 0  6.5 6.5 0  7 6.5 0  7.5 6.5 0  8 6.5 0  8.5 6.5 0  9 6.5 0  9.5 6.5 0  10 6.5 0  10.5 6.5 0  11 6.5 0  11.5 6.5 0  12 6.5 0  12.5 6.5 0  13 6.5 0  13.5 6.5 0  14 6.5 0  14.5 6.5 0  15 6.5 0  15.5 6.5 0  16 6.5 0  16.5 6.5 0  17 6.5 0  17.5 6.5 0  18 6.5 0  18.5 6.5 0  19 6.5 0  19.5 6.5 0  20 6.5 0  0 7 0  0.5 7 0  1 7 0  1.5 7 0  2 7 0  2.5 7 0  3 7 0  3.5 7 0  4 7 0  4.5 7 0  5 7 0  5.5 7 0  6 7 0  6.5 7 0  7 7 0  7.5 7 0  8 7 0  8.5 7 0  9 7 0  9.5 7 0  10 7 0  10.5 7 0  11 7 0  11.5 7 0  12 7 0  12.5 7 0  13 7 0  13.5 7 0  14 7 0  14.5 7 0  15 7 0  15.5 7 0  16 7 0  16.5 7 0  17 7 0  17.5 7 0  18 7 0  18.5 7 0  19 7 0  19.5 7 0  20 7 0  0 7.5 0  0.5 7.5 0  1 7.5 0  1.5 7.5 0  2 7.5 0  2.5 7.5 0  3 7.5 0  3.5 7.5 0  4 7.5 0  4.5 7.5 0  5 7.5 0  5.5 7.5 0  6 7.5 0  6.5 7.5 0  7 7.5 0  7.5 7.5 0  8 7.5 0  8.5 7.5 0  9 7.5 0  9.5 7.5 0  10 7.5 0  10.5 7.5 0  11 7.5 0  11.5 7.5 0  12 7.5 0  12.5 7.5 0  13 7.5 0  13.5 7.5 0  14 7.5 0  14.5 7.5 0  15 7.5 0  15.5 7.5 0  16 7.5 0  16.5 7.5 0  17 7.5 0  17.5 7.5 0  18 7.5 0  18.5 7.5 0  19 7.5 0  19.5 7.5 0  20 7.5 0  0 8 0  0.5 8 0  1 8 0  1.5 8 0  2 8 0  2.5 8 0  3 8 0  3.5 8 0  4 8 0  4.5 8 0  5 8 0  5.5 8 0  6 8 0  6.5 8 0  7 8 0  7.5 8 0  8 8 0  8.5 8 0  9 8 0  9.5 8 0  10 8 0  10.5 8 0  11 8 0  11.5 8 0  12 8 0  12.5 8 0  13 8 0  13.5 8 0  14 8 0  14.5 8 0  15 8 0  15.5 8 0  16 8 0  16.5 8 0  17 8 0  17.5 8 0  18 8 0  18.5 8 0  19 8 0  19.5 8 0  20 8 0  0 8.5 0  0.5 8.5 0  1 8.5 0  1.5 8.5 0  2 8.5 0  2.5 8.5 0  3 8.5 0  3.5 8.5 0  4 8.5 0  4.5 8.5 0  5 8.5 0  5.5 8.5 0  6 8.5 0  6.5 8.5 0  7 8.5 0  7.5 8.5 0  8 8.5 0  8.5 8.5 0  9 8.5 0  9.5 8.5 0  10 8.5 0  10.5 8.5 0  11 8.5 0  11.5 8.5 0  12 8.5 0  12.5 8.5 0  13 8.5 0  13.5 8.5 0  14 8.5 0  14.5 8.5 0  15 8.5 0  15.5 8.5 0  16 8.5 0  16.5 8.5 0  17 8.5 0  17.5 8.5 0  18 8.5 0  18.5 8.5 0  19 8.5 0  19.5 8.5 0  20 8.5 0  0 9 0  0.5 9 0  1 9 0  1.5 9 0  2 9 0  2.5 9 0  3 9 0  3.5 9 0  4 9 0  4.5 9 0  5 9 0  5.5 9 0  6 9 0  6.5 9 0  7 9 0  7.5 9 0  8 9 0  8.5 9 0  9 9 0  9.5 9 0  10 9 0  10.5 9 0  11 9 0  11.5 9 0  12 9 0  12.5 9 0  13 9 0  13.5 9 0  14 9 0  14.5 9 0  15 9 0  15.5 9 0  16 9 0  16.5 9 0  17 9 0  17.5 9 0  18 9 0  18.5 9 0  19 9 0  19.5 9 0  20 9 0  0 9.5 0  0.5 9.5 0  1 9.5 0  1.5 9.5 0  2 9.5 0  2.5 9.5 0  3 9.5 0  3.5 9.5 0  4 9.5 0  4.5 9.5 0  5 9.5 0  5.5 9.5 0  6 9.5 0  6.5 9.5 0  7 9.5 0  7.5 9.5 0  8 9.5 0  8.5 9.5 0  9 9.5 0  9.5 9.5 0  10 9.5 0  10.5 9.5 0  11 9.5 0  11.5 9.5 0  12 9.5 0  12.5 9.5 0  13 9.5 0  13.5 9.5 0  14 9.5 0  14.5 9.5 0  15 9.5 0  15.5 9.5 0  16 9.5 0  16.5 9.5 0  17 9.5 0  17.5 9.5 0  18 9.5 0  18.5 9.5 0  19 9.5 0  19.5 9.5 0  20 9.5 0  0 10 0  0.5 10 0  1 10 0  1.5 10 0  2 10 0  2.5 10 0  3 10 0  3.5 10 0  4 10 0  4.5 10 0  5 10 0  5.5 10 0  6 10 0  6.5 10 0  7 10 0  7.5 10 0  8 10 0  8.5 10 0  9 10 0  9.5 10 0  10 10 0  10.5 10 0  11 10 0  11.5 10 0  12 10 0  12.5 10 0  13 10 0  13.5 10 0  14 10 0  14.5 10 0  15 10 0  15.5 10 0  16 10 0  16.5 10 0  17 10 0  17.5 10 0  18 10 0  18.5 10 0  19 10 0  19.5 10 0  20 10 0  0 10.5 0  0.5 10.5 0  1 10.5 0  1.5 10.5 0  2 10.5 0  2.5 10.5 0  3 10.5 0  3.5 10.5 0  4 10.5 0  4.5 10.5 0  5 10.5 0  5.5 10.5 0  6 10.5 0  6.5 10.5 0  7 10.5 0  7.5 10.5 0  8 10.5 0  8.5 10.5 0  9 10.5 0  9.5 10.5 0  10 10.5 0  10.5 10.5 0  11 10.5 0  11.5 10.5 0  12 10.5 0  12.5 10.5 0  13 10.5 0  13.5 10.5 0  14 10.5 0  14.5 10.5 0  15 10.5 0  15.5 10.5 0  16 10.5 0  16.5 10.5 0  17 10.5 0  17.5 10.5 0  18 10.5 0  18.5 10.5 0  19 10.5 0  19.5 10.5 0  20 10.5 0  0 11 0  0.5 11 0  1 11 0  1.5 11 0  2 11 0  2.5 11 0  3 11 0  3.5 11 0  4 11 0  4.5 11 0  5 11 0  5.5 11 0  6 11 0  6.5 11 0  7 11 0  7.5 11 0  8 11 0  8.5 11 0  9 11 0  9.5 11 0  10 11 0  10.5 11 0  11 11 0  11.5 11 0  12 11 0  12.5 11 0  13 11 0  13.5 11 0  14 11 0  14.5 11 0  15 11 0  15.5 11 0  16 11 0  16.5 11 0  17 11 0  17.5 11 0  18 11 0  18.5 11 0  19 11 0  19.5 11 0  20 11 0  0 11.5 0  0.5 11.5 0  1 11.5 0  1.5 11.5 0  2 11.5 0  2.5 11.5 0  3 11.5 0  3.5 11.5 0  4 11.5 0  4.5 11.5 0  5 11.5 0  5.5 11.5 0  6 11.5 0  6.5 11.5 0  7 11.5 0  7.5 11.5 0  8 11.5 0  8.5 11.5 0  9 11.5 0  9.5 11.5 0  10 11.5 0  10.5 11.5 0  11 11.5 0  11.5 11.5 0  12 11.5 0  12.5 11.5 0  13 11.5 0  13.5 11.5 0  14 11.5 0  14.5 11.5 0  15 11.5 0  15.5 11.5 0  16 11.5 0  16.5 11.5 0  17 11.5 0  17.5 11.5 0  18 11.5 0  18.5 11.5 0  19 11.5 0  19.5 11.5 0  20 11.5 0  0 12 0  0.5 12 0  1 12 0  1.5 12 0  2 12 0  2.5 12 0  3 12 0  3.5 12 0  4 12 0  4.5 12 0  5 12 0  5.5 12 0  6 12 0  6.5 12 0  7 12 0  7.5 12 0  8 12 0  8.5 12 0  9 12 0  9.5 12 0  10 12 0  10.5 12 0  11 12 0  11.5 12 0  12 12 0  12.5 12 0  13 12 0  13.5 12 0  14 12 0  14.5 12 0  
[...]
<PointData  Vectors="f_5623-0"> 
<DataArray  type="Float64"  Name="f_5623-0"  NumberOfComponents="3" format="ascii">0.0000000000000000e+00 0.0000000000000000e+00 0.0000000000000000e+00  2.2491115656459884e-07 0.0000000000000000e+00 0.0000000000000000e+00  1.2163053756529081e-06 0.0000000000000000e+00 0.0000000000000000e+00  3.9127444045012508e-06 0.0000000000000000e+00 0.0000000000000000e+00  9.1556823557217609e-06 0.0000000000000000e+00 0.0000000000000000e+00  1.7773078657468404e-05 0.0000000000000000e+00 0.0000000000000000e+00  3.0579526495958857e-05 0.0000000000000000e+00 0.0000000000000000e+00  4.8371362636244650e-05 0.0000000000000000e+00 0.0000000000000000e+00  7.1921779974476016e-05 0.0000000000000000e+00 0.0000000000000000e+00  1.0197588031228714e-04 0.0000000000000000e+00 0.0000000000000000e+00  1.3924548402261715e-04 0.0000000000000000e+00 0.0000000000000000e+00  1.8440360288176548e-04 0.0000000000000000e+00 0.0000000000000000e+00  2.3807852783842953e-04 0.0000000000000000e+00 0.0000000000000000e+00  3.0084750550572287e-04 0.0000000000000000e+00 0.0000000000000000e+00  3.7322998809119885e-04 0.0000000000000000e+00 0.0000000000000000e+00  4.5568044273235032e-04 0.0000000000000000e+00 0.0000000000000000e+00  5.4858069209032798e-04 0.0000000000000000e+00 0.0000000000000000e+00  6.5223171552248064e-04 0.0000000000000000e+00 0.0000000000000000e+00  7.6684474470885343e-04 0.0000000000000000e+00 0.0000000000000000e+00  8.9253129388250732e-04 0.0000000000000000e+00 0.0000000000000000e+00  1.0292913920114258e-03 0.0000000000000000e+00 0.0000000000000000e+00  1.1769985872128121e-03 0.0000000000000000e+00 0.0000000000000000e+00  1.3353790171922091e-03 0.0000000000000000e+00 0.0000000000000000e+00  1.5039795383268455e-03 0.0000000000000000e+00 0.0000000000000000e+00  1.6821158159820190e-03 0.0000000000000000e+00 0.0000000000000000e+00  1.8687841126792553e-03 0.0000000000000000e+00 0.0000000000000000e+00  2.0625081519987892e-03 0.0000000000000000e+00 0.0000000000000000e+00  2.2610715105217619e-03 0.0000000000000000e+00 0.0000000000000000e+00  2.4610513440768756e-03 0.0000000000000000e+00 0.0000000000000000e+00  2.6570134817389839e-03 0.0000000000000000e+00 0.0000000000000000e+00  2.8401423631009997e-03 0.0000000000000000e+00 0.0000000000000000e+00  2.9959514878330298e-03 0.0000000000000000e+00 0.0000000000000000e+00  3.1005445457087453e-03 0.0000000000000000e+00 0.0000000000000000e+00  3.1146832549593904e-03 0.0000000000000000e+00 0.0000000000000000e+00  2.9747121853708988e-03 0.0000000000000000e+00 0.0000000000000000e+00  2.5793144642529361e-03 0.0000000000000000e+00 0.0000000000000000e+00  1.7713608540193700e-03 0.0000000000000000e+00 0.0000000000000000e+00  3.1512273726102798e-04 0.0000000000000000e+00 0.0000000000000000e+00  -2.1288104143403598e-03 0.0000000000000000e+00 0.0000000000000000e+00  -6.0255177573211704e-03 0.0000000000000000e+00 0.0000000000000000e+00  -1.1976949300044048e-02 0.0000000000000000e+00 0.0000000000000000e+00  0.0000000000000000e+00 2.2491115427686227e-07 0.0000000000000000e+00  -2.9503929505171127e-07 -2.9503929662079830e-07 0.0000000000000000e+00  2.9639233952874421e-07 -1.6115858907905278e-06 0.0000000000000000e+00  2.5776999767013617e-06 -3.7417459544701788e-06 0.0000000000000000e+00  7.3979790115197864e-06 -6.6995118420441274e-06 0.0000000000000000e+00  1.5590968744366499e-05 -1.0479913129288854e-05 0.0000000000000000e+00  2.7973283296389465e-05 -1.5067998340717951e-05 0.0000000000000000e+00  4.5342125847591327e-05 -2.0442816013134883e-05 0.0000000000000000e+00  6.8471373468623447e-05 -2.6578449733441208e-05 0.0000000000000000e+00  9.8106928789517097e-05 -3.3444035715074094e-05 0.0000000000000000e+00  1.3496162191978557e-04 -4.1003468289515794e-05 0.0000000000000000e+00  1.7970971465276577e-04 -4.9215012458021623e-05 0.0000000000000000e+00  2.3298100046822214e-04 -5.8030892190557577e-05 0.0000000000000000e+00  2.9535448526292073e-04 -6.7396881865142993e-05 0.0000000000000000e+00  3.6735163580425340e-04 -7.7251918408944011e-05 0.0000000000000000e+00  4.4942918187236796e-04 -8.7527750734619209e-05 0.0000000000000000e+00  5.4197144334635868e-04 -9.8148643706889749e-05 0.0000000000000000e+00  6.4528211126410422e-04 -1.0903115447421045e-04 0.0000000000000000e+00  7.5957531699446992e-04 -1.2008399857467692e-04 0.0000000000000000e+00  8.8496563071619903e-04 -1.3120802116407183e-04 0.0000000000000000e+00  1.0214562586146178e-03 -1.4229628504034206e-04 0.0000000000000000e+00  1.1689240121812131e-03 -1.5323428045407089e-04 0.0000000000000000e+00  1.3270983471695516e-03 -1.6390025367501746e-04 0.0000000000000000e+00  1.4955294682468924e-03 -1.7416564106061637e-04 0.0000000000000000e+00  1.6735364022007408e-03 -1.8389558767422547e-04 0.0000000000000000e+00  1.8601187677570708e-03 -1.9294952948827396e-04 0.0000000000000000e+00  2.0538035917527517e-03 -2.0118183986076653e-04 0.0000000000000000e+00  2.2523775582944370e-03 -2.0844260575574565e-04 0.0000000000000000e+00  2.4524203667649134e-03 -2.1457874370117239e-04 0.0000000000000000e+00  2.6484990035333185e-03 -2.1943593603532759e-04 0.0000000000000000e+00  2.8317960528236540e-03 -2.2286231318662929e-04 0.0000000000000000e+00  2.9878172762051953e-03 -2.2471543403170376e-04 0.0000000000000000e+00  3.0926482869112104e-03 -2.2487479738289115e-04 0.0000000000000000e+00  3.1070166125830192e-03 -2.2326242372186419e-04 0.0000000000000000e+00  2.9672113015946351e-03 -2.1987299659894169e-04 0.0000000000000000e+00  2.5718388250223546e-03 -2.1481087770084149e-04 0.0000000000000000e+00  1.7636859941768685e-03 -2.0832126708175759e-04 0.0000000000000000e+00  3.0696734237733227e-04 -2.0078221177546770e-04 0.0000000000000000e+00  -2.1377162420709388e-03 -1.9257924013332307e-04 0.0000000000000000e+00  -6.0354004252363858e-03 -1.8365508220610842e-04 0.0000000000000000e+00  -1.1987849738335861e-02 -1.7206140304802786e-04 0.0000000000000000e+00  0.0000000000000000e+00 1.2163053757560843e-06 0.0000000000000000e+00  -1.6115858914598785e-06 2.9639233867949595e-07 0.0000000000000000e+00  -2.3036385688030529e-06 -2.3036385691491501e-06 0.0000000000000000e+00  -1.2953323060883904e-06 -6.5724586486823521e-06 0.0000000000000000e+00  2.2521937233744640e-06 -1.2502056664858728e-05 0.0000000000000000e+00  9.1715421604382708e-06 -2.0073515327244218e-05 0.0000000000000000e+00  2.0280770937034205e-05 -2.9257092962705474e-05 0.0000000000000000e+00  3.6378992148692104e-05 -4.0012609195681018e-05 0.0000000000000000e+00  5.8242236281241001e-05 -5.2289705167546412e-05 0.0000000000000000e+00  8.6618947814377862e-05 -6.6027723934462571e-05 0.0000000000000000e+00  1.2222503629548320e-04 -8.1155263259093268e-05 0.0000000000000000e+00  1.6573848460942729e-04 -9.7589525729175312e-05 0.0000000000000000e+00  2.1779351401479436e-04 -1.1523556716844364e-04 0.0000000000000000e+00  2.7897430030403763e-04 -1.3398551333219336e-04 0.0000000000000000e+00  3.4980823332013411e-04 -1.5371779630811791e-04 0.0000000000000000e+00  4.3075870750257963e-04 -1.7429645428343235e-04 0.0000000000000000e+00  5.2221741487892641e-04 -1.9557053574938493e-04 0.0000000000000000e+00  6.2449606942137207e-04 -2.1737364876645357e-04 0.0000000000000000e+00  7.3781739735703008e-04 -2.3952369518080870e-04 0.0000000000000000e+00  8.6230503659873094e-04 -2.6182282737827184e-04 0.0000000000000000e+00  9.9797161839260411e-04 -2.8405766051605683e-04 0.0000000000000000e+00  1.1447036098189789e-03 -3.0599976564001709e-04 0.0000000000000000e+00  1.3022402207483103e-03 -3.2740645974717097e-04 0.0000000000000000e+00  1.4701413746809598e-03 -3.4802189956457973e-04 0.0000000000000000e+00  1.6477356407339030e-03 -3.6757848256846920e-04 0.0000000000000000e+00  1.8340318273766278e-03 -3.8579857206721870e-04 0.0000000000000000e+00  2.0275655167822297e-03 -4.0239661201853032e-04 0.0000000000000000e+00  2.2261307781696847e-03 -4.1708181038323515e-04 0.0000000000000000e+00  2.4263124655408757e-03 -4.2956178633241310e-04 0.0000000000000000e+00  2.6226784671803966e-03 -4.3954793434985593e-04 0.0000000000000000e+00  2.8064044190965784e-03 -4.4676376639630485e-04 0.0000000000000000e+00  2.9629754317775057e-03 -4.5095806067952662e-04 0.0000000000000000e+00  3.0684342844394820e-03 -4.5192495968653286e-04 0.0000000000000000e+00  3.0834331551927545e-03 -4.4953250482174977e-04 0.0000000000000000e+00  2.9441443997056411e-03 -4.4375816663330464e-04 0.0000000000000000e+00  2.5490168655341759e-03 -4.3472278190179051e-04 0.0000000000000000e+00  1.7406618583945593e-03 -4.2270048449217877e-04 0.0000000000000000e+00  2.8316575746861430e-04 -4.0805859334994951e-04 0.0000000000000000e+00  -2.1628104107461492e-03 -3.9104235982064070e-04 0.0000000000000000e+00  -6.0617253128575251e-03 -3.7125553391284229e-04 0.0000000000000000e+00  -1.2013170479496241e-02 -3.4663080522434804e-04 0.0000000000000000e+00  0.0000000000000000e+00 3.9127444049769385e-06 0.0000000000000000e+00  -3.7417459541494159e-06 2.5776999749316837e-06 0.0000000000000000e+00  -6.5724586475248316e-06 -1.2953323102594650e-06 0.0000000000000000e+00  -7.6905249015774282e-06 -7.6905249034776128e-06 0.0000000000000000e+00  -6.2657116855645719e-06 -1.6586027429027965e-05 0.0000000000000000e+00  -1.4673340220139382e-06 -2.7948545120389536e-05 0.0000000000000000e+00  7.5231696119891255e-06 -4.1731307515962074e-05 0.0000000000000000e+00  2.1506811346542553e-05 -5.7873772030792133e-05 0.0000000000000000e+00  4.1262581273269615e-05 -7.6301136381554880e-05 0.0000000000000000e+00  6.7542875493884107e-05 -9.6923581241574721e-05 0.0000000000000000e+00  1.0106859534872307e-04 -1.1963532275577171e-04 0.0000000000000000e+00  1.4252383549058143e-04 -1.4431353067167053e-04 0.0000000000000000e+00  1.9255012180597009e-04 -1.7081716393022467e-04 0.0000000000000000e+00  2.5174017709501045e-04 -1.9898577861077066e-04 0.0000000000000000e+00  3.2063119911739644e-04 -2.2863836616270717e-04 0.0000000000000000e+00  3.9969763431851749e-04 -2.5957228219714219e-04 0.0000000000000000e+00  4.8934341550554668e-04 -2.9156232851760546e-04 0.0000000000000000e+00  5.8989359002163558e-04 -3.2436005319403559e-04 0.0000000000000000e+00  7.0158517183094976e-04 -3.5769333465089008e-04 0.0000000000000000e+00  8.2455686096792309e-04 -3.9126631530455295e-04 0.0000000000000000e+00  9.5883690536730654e-04 -4.2475974709166428e-04 0.0000000000000000e+00  1.1043276867734209e-03 -4.5783180597467140e-04 0.0000000000000000e+00  1.2607843365593787e-03 -4.9011942567548858e-04 0.0000000000000000e+00  1.4277823777208625e-03 -5.2124019594463049e-04 0.0000000000000000e+00  1.6046652729898019e-03 -5.5079487396133089e-04 0.0000000000000000e+00  1.7904555331567779e-03 -5.7837058045187432e-04 0.0000000000000000e+00  1.9837005646547727e-03 -6.0354481239667448e-04 0.0000000000000000e+00  2.1822033098917158e-03 -6.2589052552026569e-04 0.0000000000000000e+00  2.3825527809304289e-03 -6.4498274604147512e-04 0.0000000000000000e+00  2.5793134134286825e-03 -6.6040747031349454e-04 0.0000000000000000e+00  2.7636452288534495e-03 -6.7177395661496310e-04 0.0000000000000000e+00  2.9209989587715983e-03 -6.7873173676896888e-04 0.0000000000000000e+00  3.0273558322668022e-03 -6.8099338483775082e-04 0.0000000000000000e+00  3.0432709493414998e-03 -6.7836256019943703e-04 0.0000000000000000e+00  2.9047806541149588e-03 -6.7076304909023622e-04 0.0000000000000000e+00  2.5101698968222285e-03 -6.5825736329930881e-04 0.0000000000000000e+00  1.7018985256819857e-03 -6.4103250991064912e-04 0.0000000000000000e+00  2.4400242154165195e-04 -6.1931743302417823e-04 0.0000000000000000e+00  -2.2026501925188112e-03 -5.9318750381237714e-04 0.0000000000000000e+00  -6.1018096340540616e-03 -5.6222615600321998e-04 0.0000000000000000e+00  -1.2051531458165321e-02 -5.2512903805796590e-04 0.0000000000000000e+00  0.0000000000000000e+00 9.1556823541452818e-06 0.0000000000000000e+00  -6.6995118418725685e-06 7.3979790089794337e-06 0.0000000000000000e+00  -1.2502056663462295e-05 2.2521937190042949e-06 0.0000000000000000e+00  -1.6586027427824724e-05 -6.2657116867437672e-06 0.0000000000000000e+00  -1.8123912377672978e-05 -1.8123912378856591e-05 0.0000000000000000e+00  -1.6286324228869674e-05 -3.3276190319417003e-05 0.0000000000000000e+00  -1.0253880307475364e-05 -5.1659817322133958e-05 0.0000000000000000e+00  7.7678023246596139e-07 -7.3194651803210151e-05 0.0000000000000000e+00  1.7588383495995066e-05 -9.7782191233907216e-05 0.0000000000000000e+00  4.0938496723395001e-05 -1.2530438197345416e-04 0.0000000000000000e+00  7.1554721911738938e-05 -1.5562221434486722e-04 0.0000000000000000e+00  1.1012948380659293e-04 -1.8857416859794545e-04 0.0000000000000000e+00  1.5731435437572701e-04 -2.2397457620739559e-04 0.0000000000000000e+00  2.1371387820087701e-04 -2.6161196008497075e-04 0.0000000000000000e+00  2.7987887285307373e-04 -3.0124742153711396e-04 0.0000000000000000e+00  3.5629917876345204e-04 -3.4261314849397652e-04 0.0000000000000000e+00  4.4339581946393721e-04 -3.8541112688845975e-04 0.0000000000000000e+00  5.4151249263238276e-04 -4.2931214369752398e-04 0.0000000000000000e+00  6.5090622055090645e-04 -4.7395517543755427e-04 0.0000000000000000e+00  7.7173680019930111e-04 -5.1894725908051850e-04 0.0000000000000000e+00  9.0405432595172335e-04 -5.6386394289312497e-04 0.0000000000000000e+00  1.0477833652677497e-03 -6.0825041311374261e-04 0.0000000000000000e+00  1.2027010898091996e-03 -6.5162338934922738e-04 0.0000000000000000e+00  1.3684043482990365e-03 -6.9347388042922161e-04 0.0000000000000000e+00  1.5442565359224669e-03 -7.3327089877363435e-04 0.0000000000000000e+00  1.7292978603476177e-03 -7.7046625405378726e-04 0.0000000000000000e+00  1.9220900821553843e-03 -8.0450059865422156e-04 0.0000000000000000e+00  2.1204456138000207e-03 -8.3481099100702011e-04 0.0000000000000000e+00  2.3209558280910879e-03 -8.6084038353545478e-04 0.0000000000000000e+00  2.5181771952432846e-03 -8.8204960900241261e-04 0.0000000000000000e+00  2.7032469743430601e-03 -8.9793255184565483e-04 0.0000000000000000e+00  2.8615726610877351e-03 -9.0803505970973451e-04 0.0000000000000000e+00  2.9690657696542326e-03 -9.1197742577003220e-04 0.0000000000000000e+00  2.9861814011901831e-03 -9.0947844710844166e-04 0.0000000000000000e+00  2.8488291879208674e-03 -9.0037564066790525e-04 0.0000000000000000e+00  2.4551600084787061e-03 -8.8463119540959007e-04 0.0000000000000000e+00  1.6475379392326141e-03 -8.6230817718895882e-04 0.0000000000000000e+00  1.9002108061799924e-04 -8.3350076270369191e-04 0.0000000000000000e+00  -2.2562746572727371e-03 -7.9821456640841290e-04 0.0000000000000000e+00  -6.1545300979783338e-03 -7.5623431543475768e-04 0.0000000000000000e+00  -1.2101925235479986e-02 -7.0712173072083042e-04 0.0000000000000000e+00  0.0000000000000000e+00 1.7773078653329496e-05 0.0000000000000000e+00  -1.0479913130849387e-05 1.5590968744474709e-05 0.0000000000000000e+00  -2.0073515328506565e-05 9.1715421572039415e-06 0.0000000000000000e+00  -2.7948545122461714e-05 -1.4673340252011870e-06 0.0000000000000000e+00  -3.3276190320612004e-05 -1.6286324229794685e-05 0.0000000000000000e+00  -3.5227661810787901e-05 -3.5227661811141961e-05 0.0000000000000000e+00  -3.2982507388919952e-05 -5.8213907756493705e-05 0.0000000000000000e+00  -2.5734596525242920e-05 -8.5146656307048680e-05 0.0000000000000000e+00  -1.2696730409943682e-05 -1.1590516214564771e-04 0.0000000000000000e+00  6.8949477448186982e-06 -1.5034472467622282e-04 0.0000000000000000e+00  3.3776300674355615e-05 -1.8829483684932151e-04 0.0000000000000000e+00  6.8650135063377923e-05 -2.2955715639839862e-04 0.0000000000000000e+00  1.1218065008218369e-04 -2.7390336924215306e-04 0.0000000000000000e+00  1.6498734796510439e-04 -3.2107302078753582e-04 0.0000000000000000e+00  2.2763836994553284e-04 -3.7077139826497535e-04 0.0000000000000000e+00  3.0064322161260935e-04 -4.2266755673818143e-04 0.0000000000000000e+00  3.8444483838928579e-04 -4.7639259197790210e-04 0.0000000000000000e+00  4.7941090183640080e-04 -5.3153827421558136e-04 0.0000000000000000e+00  5.8582422650431767e-04 -5.8765616631747410e-04 0.0000000000000000e+00  7.0387184979273576e-04 -6.4425735774876298e-04 0.0000000000000000e+00  8.3363209110217285e-04 -7.0081295090328665e-04 0.0000000000000000e+00  9.7505815428220940e-04 -7.5675543892905013e-04 0.0000000000000000e+00  1.1279555675536164e-03 -8.1148111486582081e-04 0.0000000000000000e+00  1.2919484334847902e-03 -8.6435365247591379e-04 0.0000000000000000e+00  1.4664253177583220e-03 -9.1470900352588606e-04 0.0000000000000000e+00  1.6504483294761953e-03 -9.6186176934825595e-04 0.0000000000000000e+00  1.8425963916114544e-03 -1.0051132326680322e-03 0.0000000000000000e+00  2.0406924679390813e-03 -1.0437612804895279e-03 0.0000000000000000e+00  2.2413294500156513e-03 -1.0771125019983759e-03 0.0000000000000000e+00  2.4390531937442373e-03 -1.1044967697851824e-03 0.0000000000000000e+00  2.6249744436815875e-03 -1.1252845227048187e-03 0.0000000000000000e+00  2.7844542498191350e-03 -1.1389066049816315e-03 0.0000000000000000e+00  2.8933346564059045e-03 -1.1448756454605037e-03 0.0000000000000000e+00  2.9119786413032587e-03 -1.1428063542658141e-03 0.0000000000000000e+00  2.7761891364055714e-03 -1.1324298001609587e-03 0.0000000000000000e+00  2.3840170956507057e-03 -1.1135945223386071e-03 0.0000000000000000e+00  1.5777726340637183e-03 -1.0862475621723584e-03 0.0000000000000000e+00  1.2156064867487255e-04 -1.0503954605947314e-03 0.0000000000000000e+00  -2.3233036449488353e-03 -1.0060641691067883e-03 0.0000000000000000e+00  -6.2196452703472431e-03 -9.5331099624443988e-04 0.0000000000000000e+00  -1.2164250685293485e-02 -8.9239223828970523e-04 0.0000000000000000e+00  0.0000000000000000e+00 3.0579526493543613e-05 0.0000000000000000e+00  -1.5067998338028442e-05 2.7973283293978575e-05 0.0000000000000000e+00  -2.9257092960238240e-05 2.0280770933727737e-05 0.0000000000000000e+00  -4.1731307515323336e-05 7.5231696106225623e-06 0.0000000000000000e+00  -5.1659817320673673e-05 -1.0253880310918372e-05 0.0000000000000000e+00  -5.8213907755798277e-05 -3.2982507390334463e-05 0.0000000000000000e+00  -6.0572000358018549e-05 -6.0572000357428858e-05 0.0000000000000000e+00  -5.7925003583021072e-05 -9.2907314284880195e-05 0.0000000000000000e+00  -4.9480738461531176e-05 -1.2984731085856607e-04 0.0000000000000000e+00  -3.4468159213308928e-05 -1.7122270910726321e-04 0.0000000000000000e+00  -1.2141795570681417e-05 -2.1683376626781175e-04 0.0000000000000000e+00  1.8213385247293332e-05 -2.6644774593324248e-04 0.0000000000000000e+00  5.7276595426916863e-05 -3.1979624713294829e-04 0.0000000000000000e+00  1.0568525805638875e-04 -3.7657247934329340e-04 0.0000000000000000e+00  1.6402840301123754e-04 -4.3642858038347776e-04 0.0000000000000000e+00  2.3283937808842243e-04 -4.9897308772444337e-04 0.0000000000000000e+00  3.1258781258355217e-04 -5.6376868865904393e-04 0.0000000000000000e+00  4.0367073045307196e-04 -6.3033038999079282e-04 0.0000000000000000e+00  5.0640261947164182e-04 -6.9812426253928550e-04 0.0000000000000000e+00  6.2100407628942398e-04 -7.6656692865314136e-04 0.0000000000000000e+00  7.4758828200138599e-04 -8.3502597139532581e-04 0.0000000000000000e+00  8.8614387109067934e-04 -9.0282145110600199e-04 0.0000000000000000e+00  1.0365114764344563e-03 -9.6922871878847572e-04 0.0000000000000000e+00  1.1983489085617357e-03 -1.0334827163872194e-03 0.0000000000000000e+00  1.3710757773534241e-03 -1.0947839527596117e-03 0.0000000000000000e+00  1.5537810779981834e-03 -1.1523063421219649e-03 0.0000000000000000e+00  1.7450646962260585e-03 -1.2052070891362715e-03 0.0000000000000000e+00  1.9427625470773652e-03 -1.2526387961170444e-03 0.0000000000000000e+00  2.1434700123181957e-03 -1.2937639367970805e-03 0.0000000000000000e+00  2.3417221962294074e-03 -1.3277717494500016e-03 0.0000000000000000e+00  2.5286029490397730e-03 -1.3538973806254244e-03 0.0000000000000000e+00  2.6894278406234574e-03 -1.3714426567423932e-03 0.0000000000000000e+00  2.7999740586540224e-03 -1.3797970709543744e-03 0.0000000000000000e+00  2.8205232386632455e-03 -1.3784564542045500e-03 0.0000000000000000e+00  2.6867898