<?xml version="1.0"?>
<VTKFile type="UnstructuredGrid"  version="0.1"  >
<UnstructuredGrid>
<Piece  NumberOfPoints="1681" NumberOfCells="3200">
<Points>
<DataArray  type="Float64"  NumberOfComponents="3"  format="ascii">0 0 0  0.5 0 0  1 0 0  1.5 0 0  2 0 0  2.5 0 0  3 0 0  3.5 0 0  4 0 0  4.5 0 0  5 0 0  5.5 0 0  6 0 0  6.5 0 0  7 0 0  7.5 0 0  8 0 0  8.5 0 0  9 0 0  9.5 0 0  10 0 0  10.5 0 0  11 0 0  11.5 0 0  12 0 0  12.5 0 0  13 0 0  13.5 0 0  14 0 0  14.5 0 0  15 0 0  15.5 0 0  16 0 0  16.5 0 0  17 0 0  17.5 0 0  18 0 0  18.5 0 0  19 0 0  19.5 0 0  20 0 0  0 0.5 0  0.5 0.5 0  1 0.5 0  1.5 0.5 0  2 0.5 0  2.5 0.5 0  3 0.5 0  3.5 0.5 0  4 0.5 0  4.5 0.5 0  5 0.5 0  5.5 0.5 0  6 0.5 0  6.5 0.5 0  7 0.5 0  7.5 0.5 0  8 0.5 0  8.5 0.5 0  9 0.5 0  9.5 0.5 0  10 0.5 0  10.5 0.5 0  11 0.5 0  11.5 0.5 0  12 0.5 0  12.5 0.5 0  13 0.5 0  13.5 0.5 0  14 0.5 0  14.5 0.5 0  15 0.5 0  15.5 0.5 0  16 0.5 0  16.5 0.5 0  17 0.5 0  17.5 0.5 0  18 0.5 0  18.5 0.5 0  19 0.5 0  19.5 0.5 0  20 0.5 0  0 1 0  0.5 1 0  1 1 0  1.5 1 0  2 1 0  2.5 1 0  3 1 0  3.5 1 0  4 1 0  4.5 1 0  5 1 0  5.5 1 0  6 1 0  6.5 1 0  7 1 0  7.5 1 0  8 1 0  8.5 1 0  9 1 0  9.5 1 0  10 1 0  10.5 1 0  11 1 0  11.5 1 0  12 1 0  12.5 1 0  13 1 0  13.5 1 0  14 1 0  14.5 1 0  15 1 0  15.5 1 0  16 1 0  16.5 1 0  17 1 0  17.5 1 0  18 1 0  18.5 1 0  19 1 0  19.5 1 0  20 1 0  0 1.5 0  0.5 1.5 0  1 1.5 0  1.5 1.5 0  2 1.5 0  2.5 1.5 0  3 1.5 0  3.5 1.5 0  4 1.5 0  4.5 1.5 0  5 1.5 0  5.5 1.5 0  6 1.5 0  6.5 1.5 0  7 1.5 0  7.5 1.5 0  8 1.5 0  8.5 1.5 0  9 1.5 0  9.5 1.5 0  10 1.5 0  10.5 1.5 0  11 1.5 0  11.5 1.5 0  12 1.5 0  12.5 1.5 0  13 1.5 0  13.5 1.5 0  14 1.5 0  14.5 1.5 0  15 1.5 0  15.5 1.5 0  16 1.5 0  16.5 1.5 0  17 1.5 0  17.5 1.5 0  18 1.5 0  18.5 1.5 0  19 1.5 0  19.5 1.5 0  20 1.5 0  0 2 0  0.5 2 0  1 2 0  1.5 2 0  2 2 0  2.5 2 0  3 2 0  3.5 2 0  4 2 0  4.5 2 0  5 2 0  5.5 2 0  6 2 0  6.5 2 0  7 2 0  7.5 2 0  8 2 0  8.5 2 0  9 2 0  9.5 2 0  10 2 0  10.5 2 0  11 2 0  11.5 2 0  12 2 0  12.5 2 0  13 2 0  13.5 2 0  14 2 0  14.5 2 0  15 2 0  15.5 2 0  16 2 0  16.5 2 0  17 2 0  17.5 2 0  18 2 0  18.5 2 0  19 2 0  19.5 2 0  20 2 0  0 2.5 0  0.5 2.5 0  1 2.5 0  1.5 2.5 0  2 2.5 0  2.5 2.5 0  3 2.5 0  3.5 2.5 0  4 2.5 0  4.5 2.5 0  5 2.5 0  5.5 2.5 0  6 2.5 0  6.5 2.5 0  7 2.5 0  7.5 2.5 0  8 2.5 0  8.5 2.5 0  9 2.5 0  9.5 2.5 0  10 2.5 0  10.5 2.5 0  11 2.5 0  11.5 2.5 0  12 2.5 0  12.5 2.5 0  13 2.5 0  13.5 2.5 0  14 2.5 0  14.5 2.5 0  15 2.5 0  15.5 2.5 0  16 2.5 0  16.5 2.5 0  17 2.5 0  17.5 2.5 0  18 2.5 0  18.5 2.5 0  19 2.5 0  19.5 2.5 0  20 2.5 0  0 3 0  0.5 3 0  1 3 0  1.5 3 0  2 3 0  2.5 3 0  3 3 0  3.5 3 0  4 3 0  4.5 3 0  5 3 0  5.5 3 0  6 3 0  6.5 3 0  7 3 0  7.5 3 0  8 3 0  8.5 3 0  9 3 0  9.5 3 0  10 3 0  10.5 3 0  11 3 0  11.5 3 0  12 3 0  12.5 3 0  13 3 0  13.5 3 0  14 3 0  14.5 3 0  15 3 0  15.5 3 0  16 3 0  16.5 3 0  17 3 0  17.5 3 0  18 3 0  18.5 3 0  19 3 0  19.5 3 0  20 3 0  0 3.5 0  0.5 3.5 0  1 3.5 0  1.5 3.5 0  2 3.5 0  2.5 3.5 0  3 3.5 0  3.5 3.5 0  4 3.5 0  4.5 3.5 0  5 3.5 0  5.5 3.5 0  6 3.5 0  6.5 3.5 0  7 3.5 0  7.5 3.5 0  8 3.5 0  8.5 3.5 0  9 3.5 0  9.5 3.5 0  10 3.5 0  10.5 3.5 0  11 3.5 0  11.5 3.5 0  12 3.5 0  12.5 3.5 0  13 3.5 0  13.5 3.5 0  14 3.5 0  14.5 3.5 0  15 3.5 0  15.5 3.5 0  16 3.5 0  16.5 3.5 0  17 3.5 0  17.5 3.5 0  18 3.5 0  18.5 3.5 0  19 3.5 0  19.5 3.5 0  20 3.5 0  0 4 0  0.5 4 0  1 4 0  1.5 4 0  2 4 0  2.5 4 0  3 4 0  3.5 4 0  4 4 0  4.5 4 0  5 4 0  5.5 4 0  6 4 0  6.5 4 0  7 4 0  7.5 4 0  8 4 0  8.5 4 0  9 4 0  9.5 4 0  10 4 0  10.5 4 0  11 4 0  11.5 4 0  12 4 0  12.5 4 0  13 4 0  13.5 4 0  14 4 0  14.5 4 0  15 4 0  15.5 4 0  16 4 0  16.5 4 0  17 4 0  17.5 4 0  18 4 0  18.5 4 0  19 4 0  19.5 4 0  20 4 0  0 4.5 0  0.5 4.5 0  1 4.5 0  1.5 4.5 0  2 4.5 0  2.5 4.5 0  3 4.5 0  3.5 4.5 0  4 4.5 0  4.5 4.5 0  5 4.5 0  5.5 4.5 0  6 4.5 0  6.5 4.5 0  7 4.5 0  7.5 4.5 0  8 4.5 0  8.5 4.5 0  9 4.5 0  9.5 4.5 0  10 4.5 0  10.5 4.5 0  11 4.5 0  11.5 4.5 0  12 4.5 0  12.5 4.5 0  13 4.5 0  13.5 4.5 0  14 4.5 0  14.5 4.5 0  15 4.5 0  15.5 4.5 0  16 4.5 0  16.5 4.5 0  17 4.5 0  17.5 4.5 0  18 4.5 0  18.5 4.5 0  19 4.5 0  19.5 4.5 0  20 4.5 0  0 5 0  0.5 5 0  1 5 0  1.5 5 0  2 5 0  2.5 5 0  3 5 0  3.5 5 0  4 5 0  4.5 5 0  5 5 0  5.5 5 0  6 5 0  6.5 5 0  7 5 0  7.5 5 0  8 5 0  8.5 5 0  9 5 0  9.5 5 0  10 5 0  10.5 5 0  11 5 0  11.5 5 0  12 5 0  12.5 5 0  13 5 0  13.5 5 0  14 5 0  14.5 5 0  15 5 0  15.5 5 0  16 5 0  16.5 5 0  17 5 0  17.5 5 0  18 5 0  18.5 5 0  19 5 0  19.5 5 0  20 5 0  0 5.5 0  0.5 5.5 0  1 5.5 0  1.5 5.5 0  2 5.5 0  2.5 5.5 0  3 5.5 0  3.5 5.5 0  4 5.5 0  4.5 5.5 0  5 5.5 0  5.5 5.5 0  6 5.5 0  6.5 5.5 0  7 5.5 0  7.5 5.5 0  8 5.5 0  8.5 5.5 0  9 5.5 0  9.5 5.5 0  10 5.5 0  10.5 5.5 0  11 5.5 0  11.5 5.5 0  12 5.5 0  12.5 5.5 0  13 5.5 0  13.5 5.5 0  14 5.5 0  14.5 5.5 0  15 5.5 0  15.5 5.5 0  16 5.5 0  16.5 5.5 0  17 5.5 0  17.5 5.5 0  18 5.5 0  18.5 5.5 0  19 5.5 0  19.5 5.5 0  20 5.5 0  0 6 0  0.5 6 0  1 6 0  1.5 6 0  2 6 0  2.5 6 0  3 6 0  3.5 6 0  4 6 0  4.5 6 0  5 6 0  5.5 6 0  6 6 0  6.5 6 0  7 6 0  7.5 6 0  8 6 0  8.5 6 0  9 6 0  9.5 6 0  10 6 0  10.5 6 0  11 6 0  11.5 6 0  12 6 0  12.5 6 0  13 6 0  13.5 6 0  14 6 0  14.5 6 0  15 6 0  15.5 6 0  16 6 0  16.5 6 0  17 6 0  17.5 6 0  18 6 0  18.5 6 0  19 6 0  19.5 6 0  20 6 0  0 6.5 0  0.5 6.5 0  1 6.5 0  1.5 6.5 0  2 6.5 0  2.5 6.5 0  3 6.5 0  3.5 6.5 0  4 6.5 0  4.5 6.5 0  5 6.5 0  5.5 6.5 0  6 6.5 0  6.5 6.5 0  7 6.5 0  7.5 6.5 0  8 6.5 0  8.5 6.5 0  9 6.5 0  9.5 6.5 0  10 6.5 0  10.5 6.5 0  11 6.5 0  11.5 6.5 0  12 6.5 0  12.5 6.5 0  13 6.5 0  13.5 6.5 0  14 6.5 0  14.5 6.5 0  15 6.5 0  15.5 6.5 0  16 6.5 0  16.5 6.5 0  17 6.5 0  17.5 6.5 0  18 6.5 0  18.5 6.5 0  19 6.5 0  19.5 6.5 0  20 6.5 0  0 7 0  0.5 7 0  1 7 0  1.5 7 0  2 7 0  2.5 7 0  3 7 0  3.5 7 0  4 7 0  4.5 7 0  5 7 0  5.5 7 0  6 7 0  6.5 7 0  7 7 0  7.5 7 0  8 7 0  8.5 7 0  9 7 0  9.5 7 0  10 7 0  10.5 7 0  11 7 0  11.5 7 0  12 7 0  12.5 7 0  13 7 0  13.5 7 0  14 7 0  14.5 7 0  15 7 0  15.5 7 0  16 7 0  16.5 7 0  17 7 0  17.5 7 0  18 7 0  18.5 7 0  19 7 0  19.5 7 0  20 7 0  0 7.5 0  0.5 7.5 0  1 7.5 0  1.5 7.5 0  2 7.5 0  2.5 7.5 0  3 7.5 0  3.5 7.5 0  4 7.5 0  4.5 7.5 0  5 7.5 0  5.5 7.5 0  6 7.5 0  6.5 7.5 0  7 7.5 0  7.5 7.5 0  8 7.5 0  8.5 7.5 0  9 7.5 0  9.5 7.5 0  10 7.5 0  10.5 7.5 0  11 7.5 0  11.5 7.5 0  12 7.5 0  12.5 7.5 0  13 7.5 0  13.5 7.5 0  14 7.5 0  14.5 7.5 0  15 7.5 0  15.5 7.5 0  16 7.5 0  16.5 7.5 0  17 7.5 0  17.5 7.5 0  18 7.5 0  18.5 7.5 0  19 7.5 0  19.5 7.5 0  20 7.5 0  0 8 0  0.5 8 0  1 8 0  1.5 8 0  2 8 0  2.5 8 0  3 8 0  3.5 8 0  4 8 0  4.5 8 0  5 8 0  5.5 8 0  6 8 0  6.5 8 0  7 8 0  7.5 8 0  8 8 0  8.5 8 0  9 8 0  9.5 8 0  10 8 0  10.5 8 0  11 8 0  11.5 8 0  12 8 0  12.5 8 0  13 8 0  13.5 8 0  14 8 0  14.5 8 0  15 8 0  15.5 8 0  16 8 0  16.5 8 0  17 8 0  17.5 8 0  18 8 0  18.5 8 0  19 8 0  19.5 8 0  20 8 0  0 8.5 0  0.5 8.5 0  1 8.5 0  1.5 8.5 0  2 8.5 0  2.5 8.5 0  3 8.5 0  3.5 8.5 0  4 8.5 0  4.5 8.5 0  5 8.5 0  5.5 8.5 0  6 8.5 0  6.5 8.5 0  7 8.5 0  7.5 8.5 0  8 8.5 0  8.5 8.5 0  9 8.5 0  9.5 8.5 0  10 8.5 0  10.5 8.5 0  11 8.5 0  11.5 8.5 0  12 8.5 0  12.5 8.5 0  13 8.5 0  13.5 8.5 0  14 8.5 0  14.5 8.5 0  15 8.5 0  15.5 8.5 0  16 8.5 0  16.5 8.5 0  17 8.5 0  17.5 8.5 0  18 8.5 0  18.5 8.5 0  19 8.5 0  19.5 8.5 0  20 8.5 0  0 9 0  0.5 9 0  1 9 0  1.5 9 0  2 9 0  2.5 9 0  3 9 0  3.5 9 0  4 9 0  4.5 9 0  5 9 0  5.5 9 0  6 9 0  6.5 9 0  7 9 0  7.5 9 0  8 9 0  8.5 9 0  9 9 0  9.5 9 0  10 9 0  10.5 9 0  11 9 0  11.5 9 0  12 9 0  12.5 9 0  13 9 0  13.5 9 0  14 9 0  14.5 9 0  15 9 0  15.5 9 0  16 9 0  16.5 9 0  17 9 0  17.5 9 0  18 9 0  18.5 9 0  19 9 0  19.5 9 0  20 9 0  0 9.5 0  0.5 9.5 0  1 9.5 0  1.5 9.5 0  2 9.5 0  2.5 9.5 0  3 9.5 0  3.5 9.5 0  4 9.5 0  4.5 9.5 0  5 9.5 0  5.5 9.5 0  6 9.5 0  6.5 9.5 0  7 9.5 0  7.5 9.5 0  8 9.5 0  8.5 9.5 0  9 9.5 0  9.5 9.5 0  10 9.5 0  10.5 9.5 0  11 9.5 0  11.5 9.5 0  12 9.5 0  12.5 9.5 0  13 9.5 0  13.5 9.5 0  14 9.5 0  14.5 9.5 0  15 9.5 0  15.5 9.5 0  16 9.5 0  16.5 9.5 0  17 9.5 0  17.5 9.5 0  18 9.5 0  18.5 9.5 0  19 9.5 0  19.5 9.5 0  20 9.5 0  0 10 0  0.5 10 0  1 10 0  1.5 10 0  2 10 0  2.5 10 0  3 10 0  3.5 10 0  4 10 0  4.5 10 0  5 10 0  5.5 10 0  6 10 0  6.5 10 0  7 10 0  7.5 10 0  8 10 0  8.5 10 0  9 10 0  9.5 10 0  10 10 0  10.5 10 0  11 10 0  11.5 10 0  12 10 0  12.5 10 0  13 10 0  13.5 10 0  14 10 0  14.5 10 0  15 10 0  15.5 10 0  16 10 0  16.5 10 0  17 10 0  17.5 10 0  18 10 0  18.5 10 0  19 10 0  19.5 10 0  20 10 0  0 10.5 0  0.5 10.5 0  1 10.5 0  1.5 10.5 0  2 10.5 0  2.5 10.5 0  3 10.5 0  3.5 10.5 0  4 10.5 0  4.5 10.5 0  5 10.5 0  5.5 10.5 0  6 10.5 0  6.5 10.5 0  7 10.5 0  7.5 10.5 0  8 10.5 0  8.5 10.5 0  9 10.5 0  9.5 10.5 0  10 10.5 0  10.5 10.5 0  11 10.5 0  11.5 10.5 0  12 10.5 0  12.5 10.5 0  13 10.5 0  13.5 10.5 0  14 10.5 0  14.5 10.5 0  15 10.5 0  15.5 10.5 0  16 10.5 0  16.5 10.5 0  17 10.5 0  17.5 10.5 0  18 10.5 0  18.5 10.5 0  19 10.5 0  19.5 10.5 0  20 10.5 0  0 11 0  0.5 11 0  1 11 0  1.5 11 0  2 11 0  2.5 11 0  3 11 0  3.5 11 0  4 11 0  4.5 11 0  5 11 0  5.5 11 0  6 11 0  6.5 11 0  7 11 0  7.5 11 0  8 11 0  8.5 11 0  9 11 0  9.5 11 0  10 11 0  10.5 11 0  11 11 0  11.5 11 0  12 11 0  12.5 11 0  13 11 0  13.5 11 0  14 11 0  14.5 11 0  15 11 0  15.5 11 0  16 11 0  16.5 11 0  17 11 0  17.5 11 0  18 11 0  18.5 11 0  19 11 0  19.5 11 0  20 11 0  0 11.5 0  0.5 11.5 0  1 11.5 0  1.5 11.5 0  2 11.5 0  2.5 11.5 0  3 11.5 0  3.5 11.5 0  4 11.5 0  4.5 11.5 0  5 11.5 0  5.5 11.5 0  6 11.5 0  6.5 11.5 0  7 11.5 0  7.5 11.5 0  8 11.5 0  8.5 11.5 0  9 11.5 0  9.5 11.5 0  10 11.5 0  10.5 11.5 0  11 11.5 0  11.5 11.5 0  12 11.5 0  12.5 11.5 0  13 11.5 0  13.5 11.5 0  14 11.5 0  14.5 11.5 0  15 11.5 0  15.5 11.5 0  16 11.5 0  16.5 11.5 0  17 11.5 0  17.5 11.5 0  18 11.5 0  18.5 11.5 0  19 11.5 0  19.5 11.5 0  20 11.5 0  0 12 0  0.5 12 0  1 12 0  1.5 12 0  2 12 0  2.5 12 0  3 12 0  3.5 12 0  4 12 0  4.5 12 0  5 12 0  5.5 12 0  6 12 0  6.5 12 0  7 12 0  7.5 12 0  8 12 0  8.5 12 0  9 12 0  9.5 12 0  10 12 0  10.5 12 0  11 12 0  11.5 12 0  12 12 0  12.5 12 0  13 12 0  13.5 12 0  14 12 0  14.5 12 0  
[...]
<PointData  Vectors="f_5623-0"> 
<DataArray  type="Float64"  Name="f_5623-0"  NumberOfComponents="3" format="ascii">0.0000000000000000e+00 0.0000000000000000e+00 0.0000000000000000e+00  1.0723085231738404e-06 0.0000000000000000e+00 0.0000000000000000e+00  5.2432022873514327e-06 0.0000000000000000e+00 0.0000000000000000e+00  1.6590398411536417e-05 0.0000000000000000e+00 0.0000000000000000e+00  3.8671572360440411e-05 0.0000000000000000e+00 0.0000000000000000e+00  7.4974867911399939e-05 0.0000000000000000e+00 0.0000000000000000e+00  1.2892987344385550e-04 0.0000000000000000e+00 0.0000000000000000e+00  2.0388829010869954e-04 0.0000000000000000e+00 0.0000000000000000e+00  3.0310301780589417e-04 0.0000000000000000e+00 0.0000000000000000e+00  4.2970607722036202e-04 0.0000000000000000e+00 0.0000000000000000e+00  5.8668440084955989e-04 0.0000000000000000e+00 0.0000000000000000e+00  7.7685256142153195e-04 0.0000000000000000e+00 0.0000000000000000e+00  1.0028213115139278e-03 0.0000000000000000e+00 0.0000000000000000e+00  1.2669603530404893e-03 0.0000000000000000e+00 0.0000000000000000e+00  1.5713530022110906e-03 0.0000000000000000e+00 0.0000000000000000e+00  1.9177392568824961e-03 0.0000000000000000e+00 0.0000000000000000e+00  2.3074420411670305e-03 0.0000000000000000e+00 0.0000000000000000e+00  2.7412688698407015e-03 0.0000000000000000e+00 0.0000000000000000e+00  3.2193775511807749e-03 0.0000000000000000e+00 0.0000000000000000e+00  3.7410894751691080e-03 0.0000000000000000e+00 0.0000000000000000e+00  4.3046271099869407e-03 0.0000000000000000e+00 0.0000000000000000e+00  4.9067431342098332e-03 0.0000000000000000e+00 0.0000000000000000e+00  5.5421968118414830e-03 0.0000000000000000e+00 0.0000000000000000e+00  6.2030186133111113e-03 0.0000000000000000e+00 0.0000000000000000e+00  6.8774869438510428e-03 0.0000000000000000e+00 0.0000000000000000e+00  7.5487221170524163e-03 0.0000000000000000e+00 0.0000000000000000e+00  8.1927844878149254e-03 0.0000000000000000e+00 0.0000000000000000e+00  8.7761496612793807e-03 0.0000000000000000e+00 0.0000000000000000e+00  9.2524298601185436e-03 0.0000000000000000e+00 0.0000000000000000e+00  9.5582254867098999e-03 0.0000000000000000e+00 0.0000000000000000e+00  9.6080360641440776e-03 0.0000000000000000e+00 0.0000000000000000e+00  9.2882484668782329e-03 0.0000000000000000e+00 0.0000000000000000e+00  8.4503655594290929e-03 0.0000000000000000e+00 0.0000000000000000e+00  6.9038474320610504e-03 0.0000000000000000e+00 0.0000000000000000e+00  4.4092040243703407e-03 0.0000000000000000e+00 0.0000000000000000e+00  6.7227149903873970e-04 0.0000000000000000e+00 0.0000000000000000e+00  -4.6591383012901857e-03 0.0000000000000000e+00 0.0000000000000000e+00  -1.1994898847036944e-02 0.0000000000000000e+00 0.0000000000000000e+00  -2.1797305295818189e-02 0.0000000000000000e+00 0.0000000000000000e+00  -3.4569783662524133e-02 0.0000000000000000e+00 0.0000000000000000e+00  -5.0837203841028550e-02 0.0000000000000000e+00 0.0000000000000000e+00  0.0000000000000000e+00 1.0723085233984640e-06 0.0000000000000000e+00  -1.2084245975028971e-06 -1.2084245985584239e-06 0.0000000000000000e+00  1.3160472832596987e-06 -6.8192155363238108e-06 0.0000000000000000e+00  1.0936266774536057e-05 -1.5817668139366273e-05 0.0000000000000000e+00  3.1245294520886083e-05 -2.8283276334146592e-05 0.0000000000000000e+00  6.5762644638668263e-05 -4.4206872058714205e-05 0.0000000000000000e+00  1.1793004406170779e-04 -6.3530818862049331e-05 0.0000000000000000e+00  1.9110454928514164e-04 -8.6169256879028202e-05 0.0000000000000000e+00  2.8854270799853575e-04 -1.1201419293591860e-04 0.0000000000000000e+00  4.1338021419786965e-04 -1.4093634761297961e-04 0.0000000000000000e+00  5.6860832189921048e-04 -1.7278426493361874e-04 0.0000000000000000e+00  7.5704682722829892e-04 -2.0738284212210690e-04 0.0000000000000000e+00  9.8131272493648673e-04 -2.4453166520690332e-04 0.0000000000000000e+00  1.2437830315914949e-03 -2.8400330559237081e-04 0.0000000000000000e+00  1.5465494635586486e-03 -3.2554166980899700e-04 0.0000000000000000e+00  1.8913614811412426e-03 -3.6886048260991236e-04 0.0000000000000000e+00  2.2795524706270701e-03 -4.1364198773275867e-04 0.0000000000000000e+00  2.7119412997874829e-03 -4.5953596069610715e-04 0.0000000000000000e+00  3.1886978553493628e-03 -5.0615914111675256e-04 0.0000000000000000e+00  3.7091560970649645e-03 -5.5309520677906856e-04 0.0000000000000000e+00  4.2715512364472101e-03 -5.9989542822247140e-04 0.0000000000000000e+00  4.8726484512465421e-03 -6.4608015974436340e-04 0.0000000000000000e+00  5.5072187266068098e-03 -6.9114134038644997e-04 0.0000000000000000e+00  6.1673028135680067e-03 -7.3454619410423571e-04 0.0000000000000000e+00  6.8411871646459396e-03 -7.7574232918710374e-04 0.0000000000000000e+00  7.5119970045675211e-03 -8.1416443730213963e-04 0.0000000000000000e+00  8.1557935106944691e-03 -8.4924277503093423e-04 0.0000000000000000e+00  8.7390481443888387e-03 -8.8041356267881037e-04 0.0000000000000000e+00  9.2153634352988741e-03 -9.0713134142562436e-04 0.0000000000000000e+00  9.5213245979584166e-03 -9.2888316732148255e-04 0.0000000000000000e+00  9.5714116412370497e-03 -9.4520426198217299e-04 0.0000000000000000e+00  9.2519904504447491e-03 -9.5569435168701468e-04 0.0000000000000000e+00  8.4145464790864669e-03 -9.6003337620196845e-04 0.0000000000000000e+00  6.8685333935316045e-03 -9.5799451872098792e-04 0.0000000000000000e+00  4.3744746764087369e-03 -9.4945160809561165e-04 0.0000000000000000e+00  6.3824778013782846e-04 -9.3437688339010532e-04 0.0000000000000000e+00  -4.6922671277853396e-03 -9.1282361543997491e-04 0.0000000000000000e+00  -1.2026879068718197e-02 -8.8488432458960254e-04 0.0000000000000000e+00  -2.1827974431713672e-02 -8.5060141324050896e-04 0.0000000000000000e+00  -3.4600020045104693e-02 -8.0975522063366293e-04 0.0000000000000000e+00  -5.0874615345917674e-02 -7.6129278472110852e-04 0.0000000000000000e+00  0.0000000000000000e+00 5.2432022894380856e-06 0.0000000000000000e+00  -6.8192155389004952e-06 1.3160472838721266e-06 0.0000000000000000e+00  -9.7078696808593005e-06 -9.7078696780392161e-06 0.0000000000000000e+00  -5.4403817579020912e-06 -2.7740124620692968e-05 0.0000000000000000e+00  9.5175579476814145e-06 -5.2747312243082811e-05 0.0000000000000000e+00  3.8676920808685757e-05 -8.4656200151576449e-05 0.0000000000000000e+00  8.5485640773101665e-05 -1.2334784447122401e-04 0.0000000000000000e+00  1.5330966791877348e-04 -1.6865771698724752e-04 0.0000000000000000e+00  2.4541533964941875e-04 -2.2037697706752914e-04 0.0000000000000000e+00  3.6494947944255179e-04 -2.7825252013309224e-04 0.0000000000000000e+00  5.1491646639112443e-04 -3.4198558653477425e-04 0.0000000000000000e+00  6.9815172321532860e-04 -4.1122937132891097e-04 0.0000000000000000e+00  9.1729071178362864e-04 -4.8558607594278232e-04 0.0000000000000000e+00  1.1747319584061563e-03 -5.6460372765415069e-04 0.0000000000000000e+00  1.4725918173866062e-03 -6.4777301002025603e-04 0.0000000000000000e+00  1.8126474893380960e-03 -7.3452430975540607e-04 0.0000000000000000e+00  2.1962630599423297e-03 -8.2422517740406100e-04 0.0000000000000000e+00  2.6242907806233269e-03 -9.1617840863895115e-04 0.0000000000000000e+00  3.0969361801783187e-03 -1.0096209716141222e-03 0.0000000000000000e+00  3.6135705185900372e-03 -1.1037240295381097e-03 0.0000000000000000e+00  4.1724671652175905e-03 -1.1975943333273674e-03 0.0000000000000000e+00  4.7704292865317520e-03 -1.2902772840631726e-03 0.0000000000000000e+00  5.4022644122063103e-03 -1.3807619858856896e-03 0.0000000000000000e+00  6.0600468582182911e-03 -1.4679886211591048e-03 0.0000000000000000e+00  6.7320918744642484e-03 -1.5508584740543069e-03 0.0000000000000000e+00  7.4015467167944165e-03 -1.6282468952743220e-03 0.0000000000000000e+00  8.0444857118054606e-03 -1.6990194261810470e-03 0.0000000000000000e+00  8.6273825232020228e-03 -1.7620511677379647e-03 0.0000000000000000e+00  9.1038291828368593e-03 -1.8162492713502678e-03 0.0000000000000000e+00  9.4103866310467268e-03 -1.8605781259898933e-03 0.0000000000000000e+00  9.4614968812626980e-03 -1.8940864066524998e-03 0.0000000000000000e+00  9.1434757703020113e-03 -1.9159346240991584e-03 0.0000000000000000e+00  8.3077503032630510e-03 -1.9254211742330139e-03 0.0000000000000000e+00  6.7637129632129051e-03 -1.9220041216339611e-03 0.0000000000000000e+00  4.2718303376444644e-03 -1.9053150211171997e-03 0.0000000000000000e+00  5.3793393356130757e-04 -1.8751598049697364e-03 0.0000000000000000e+00  -4.7901277883986215e-03 -1.8314996191210080e-03 0.0000000000000000e+00  -1.2122184959882822e-02 -1.7744004165434109e-03 0.0000000000000000e+00  -2.1920642724453189e-02 -1.7039336754133664e-03 0.0000000000000000e+00  -3.4689933848069586e-02 -1.6200111574152277e-03 0.0000000000000000e+00  -5.0960774118396196e-02 -1.5222091599174099e-03 0.0000000000000000e+00  0.0000000000000000e+00 1.6590398415036204e-05 0.0000000000000000e+00  -1.5817668138811666e-05 1.0936266775329344e-05 0.0000000000000000e+00  -2.7740124619580065e-05 -5.4403817559738817e-06 0.0000000000000000e+00  -3.2435257525959078e-05 -3.2435257524346930e-05 0.0000000000000000e+00  -2.6417373531665225e-05 -6.9947556225683920e-05 0.0000000000000000e+00  -6.1886062268099573e-06 -1.1783847933796805e-04 0.0000000000000000e+00  3.1698964313933108e-05 -1.7591481445045130e-04 0.0000000000000000e+00  9.0618459513891516e-05 -2.4392553068498164e-04 0.0000000000000000e+00  1.7384838626129819e-04 -3.2155917938100610e-04 0.0000000000000000e+00  2.8455205352500792e-04 -4.0844071133897415e-04 0.0000000000000000e+00  4.2575465720251119e-04 -5.0412769833298025e-04 0.0000000000000000e+00  6.0031703134774488e-04 -6.0810603564069360e-04 0.0000000000000000e+00  8.1090493727645999e-04 -7.1978526967917842e-04 0.0000000000000000e+00  1.0599523118440940e-03 -8.3849375355394835e-04 0.0000000000000000e+00  1.3496161326006994e-03 -9.6347386827276115e-04 0.0000000000000000e+00  1.6817193836606769e-03 -1.0938775714255777e-03 0.0000000000000000e+00  2.0576768597087309e-03 -1.2287625573460775e-03 0.0000000000000000e+00  2.4783960001932802e-03 -1.3670893392194212e-03 0.0000000000000000e+00  2.9441413106260357e-03 -1.5077195937307714e-03 0.0000000000000000e+00  3.4543458477759312e-03 -1.6494161418267957e-03 0.0000000000000000e+00  4.0073463162003152e-03 -1.7908449708901467e-03 0.0000000000000000e+00  4.6000091299971567e-03 -1.9305797309278751e-03 0.0000000000000000e+00  5.2272029862341233e-03 -2.0671091537684074e-03 0.0000000000000000e+00  5.8810589246933182e-03 -2.1988478417872544e-03 0.0000000000000000e+00  6.5499417678108176e-03 -2.3241508405851896e-03 0.0000000000000000e+00  7.2170382142351100e-03 -2.4413323354328881e-03 0.0000000000000000e+00  7.8584487941892808e-03 -2.5486886782684890e-03 0.0000000000000000e+00  8.4406571213548436e-03 -2.6445257465510133e-03 0.0000000000000000e+00  8.9172463304589954e-03 -2.7271903455624107e-03 0.0000000000000000e+00  9.2247478703730325e-03 -2.7951049886889242e-03 0.0000000000000000e+00  9.2775532629472465e-03 -2.8468049348462196e-03 0.0000000000000000e+00  8.9619082822046219e-03 -2.8809758477416026e-03 0.0000000000000000e+00  8.1291539345531173e-03 -2.8964898885679223e-03 0.0000000000000000e+00  6.5885867122330247e-03 -2.8924374542689682e-03 0.0000000000000000e+00  4.1005752098200012e-03 -2.8681510467410340e-03 0.0000000000000000e+00  3.7086050005644659e-04 -2.8232167139668266e-03 0.0000000000000000e+00  -4.9527806315165521e-03 -2.7574669095414596e-03 0.0000000000000000e+00  -1.2280215917728295e-02 -2.6709466289965350e-03 0.0000000000000000e+00  -2.2073826361495175e-02 -2.5638439405516718e-03 0.0000000000000000e+00  -3.4837898636898838e-02 -2.4363799416921407e-03 0.0000000000000000e+00  -5.1102755546819728e-02 -2.2886543064856808e-03 0.0000000000000000e+00  0.0000000000000000e+00 3.8671572364086868e-05 0.0000000000000000e+00  -2.8283276333526557e-05 3.1245294522847222e-05 0.0000000000000000e+00  -5.2747312243226041e-05 9.5175579485178341e-06 0.0000000000000000e+00  -6.9947556225135151e-05 -2.6417373529797470e-05 0.0000000000000000e+00  -7.6413549018523422e-05 -7.6413549019389957e-05 0.0000000000000000e+00  -6.8656782214444341e-05 -1.4027474241156174e-04 0.0000000000000000e+00  -4.3228047090554892e-05 -2.1773865441649897e-04 0.0000000000000000e+00  3.2544365094707846e-06 -3.0847067176640496e-04 0.0000000000000000e+00  7.4084096625720396e-05 -4.1205913340652844e-04 0.0000000000000000e+00  1.7244535548196591e-04 -5.2801020731860324e-04 0.0000000000000000e+00  3.0139095578826354e-04 -6.5574210054279041e-04 0.0000000000000000e+00  4.6381604345847399e-04 -7.9457872566992367e-04 0.0000000000000000e+00  6.6242777651177604e-04 -9.4374302635619764e-04 0.0000000000000000e+00  8.9970881057847341e-04 -1.1023501941095724e-03 0.0000000000000000e+00  1.1778722610633909e-03 -1.2694010429742239e-03 0.0000000000000000e+00  1.4988045757313819e-03 -1.4437758501961854e-03 0.0000000000000000e+00  1.8639910081243237e-03 -1.6242290159041862e-03 0.0000000000000000e+00  2.2744158377594088e-03 -1.8093849410648402e-03 0.0000000000000000e+00  2.7304258475965609e-03 -1.9977355696884952e-03 0.0000000000000000e+00  3.2315404898538027e-03 -2.1876400860244057e-03 0.0000000000000000e+00  3.7761852450020508e-03 -2.3773272967446352e-03 0.0000000000000000e+00  4.3613154932422866e-03 -2.5649012572120668e-03 0.0000000000000000e+00  4.9818864260462786e-03 -2.7483507115793303e-03 0.0000000000000000e+00  5.6301099797729055e-03 -2.9255628995843910e-03 0.0000000000000000e+00  6.2944227335023648e-03 -3.0943422251097320e-03 0.0000000000000000e+00  6.9580701506845848e-03 -3.2524341705646997e-03 0.0000000000000000e+00  7.5971945560136455e-03 -3.3975546612211205e-03 0.0000000000000000e+00  8.1783005587326256e-03 -3.5274248265980122e-03 0.0000000000000000e+00  8.6549681888684234e-03 -3.6398107685061049e-03 0.0000000000000000e+00  8.9636993839666002e-03 -3.7325675390892112e-03 0.0000000000000000e+00  9.0188289549697834e-03 -3.8036860840580055e-03 0.0000000000000000e+00  8.7065199797412441e-03 -3.8513414530690765e-03 0.0000000000000000e+00  7.8780083680345826e-03 -3.8739401509544796e-03 0.0000000000000000e+00  6.3424691991419953e-03 -3.8701640870111372e-03 0.0000000000000000e+00  3.8601417885970007e-03 -3.8390080809216080e-03 0.0000000000000000e+00  1.3664063057912179e-04 -3.7798071335463793e-03 0.0000000000000000e+00  -5.1803686886175973e-03 -3.6922485495348594e-03 0.0000000000000000e+00  -1.2500834308730844e-02 -3.5763627143443268e-03 0.0000000000000000e+00  -2.2287167237954705e-02 -3.4324854203648960e-03 0.0000000000000000e+00  -3.5043603585393733e-02 -3.2611830756653416e-03 0.0000000000000000e+00  -5.1300248623430127e-02 -3.0631225386282155e-03 0.0000000000000000e+00  0.0000000000000000e+00 7.4974867916611780e-05 0.0000000000000000e+00  -4.4206872056991123e-05 6.5762644643046881e-05 0.0000000000000000e+00  -8.4656200152465372e-05 3.8676920809273022e-05 0.0000000000000000e+00  -1.1783847933771156e-04 -6.1886062248910973e-06 0.0000000000000000e+00  -1.4027474241187844e-04 -6.8656782217552071e-05 0.0000000000000000e+00  -1.4848109844156266e-04 -1.4848109844361931e-04 0.0000000000000000e+00  -1.3900562603689023e-04 -2.4533600271746040e-04 0.0000000000000000e+00  -1.0845613017494490e-04 -3.5880910410094252e-04 0.0000000000000000e+00  -5.3521324442357913e-05 -4.8839458040280379e-04 0.0000000000000000e+00  2.9008774570826977e-05 -6.3348623971214222e-04 0.0000000000000000e+00  1.4222068557419310e-04 -7.9336986820334628e-04 0.0000000000000000e+00  2.8905209461321341e-04 -9.6721493734222184e-04 0.0000000000000000e+00  4.7226194016892537e-04 -1.1540658881354004e-03 0.0000000000000000e+00  6.9439423634210862e-04 -1.3528332729115873e-03 0.0000000000000000e+00  9.5773318090182184e-04 -1.5622850819569439e-03 0.0000000000000000e+00  1.2642459294523699e-03 -1.7810386318264974e-03 0.0000000000000000e+00  1.6155076716730548e-03 -2.0075534469999432e-03 0.0000000000000000e+00  2.0126010988695676e-03 -2.2401256253336368e-03 0.0000000000000000e+00  2.4559787159426100e-03 -2.4768842371613664e-03 0.0000000000000000e+00  2.9452713731205867e-03 -2.7157903642610294e-03 0.0000000000000000e+00  3.4790194726276391e-03 -2.9546394324353304e-03 0.0000000000000000e+00  4.0542941322550463e-03 -3.1910675240718793e-03 0.0000000000000000e+00  4.6661638176824739e-03 -3.4225623648687542e-03 0.0000000000000000e+00  5.3069474434238066e-03 -3.6464796514218798e-03 0.0000000000000000e+00  5.9651779512870521e-03 -3.8600653096735097e-03 0.0000000000000000e+00  6.6241818787643554e-03 -4.0604841361650563e-03 0.0000000000000000e+00  7.2601625245641887e-03 -4.2448550621141312e-03 0.0000000000000000e+00  7.8396607337738265e-03 -4.4102929904333392e-03 0.0000000000000000e+00  8.3162639773846463e-03 -4.5539567941085077e-03 0.0000000000000000e+00  8.6264498509568011e-03 -4.6731026525890012e-03 0.0000000000000000e+00  8.6844956412642314e-03 -4.7651414802055815e-03 0.0000000000000000e+00  8.3764743857972675e-03 -4.8276988134762291e-03 0.0000000000000000e+00  7.5535025012475627e-03 -4.8586752049484365e-03 0.0000000000000000e+00  6.0246116772900392e-03 -4.8563048992993855e-03 0.0000000000000000e+00  3.5498818085922569e-03 -4.8192102355477358e-03 0.0000000000000000e+00  -1.6523829554399461e-04 -4.7464486395822217e-03 0.0000000000000000e+00  -5.4732438129024416e-03 -4.6375480861623516e-03 0.0000000000000000e+00  -1.2784226400139660e-02 -4.4925255943751531e-03 0.0000000000000000e+00  -2.2560708572508914e-02 -4.3118821281138992e-03 0.0000000000000000e+00  -3.5306978400755779e-02 -4.0965673124006554e-03 0.0000000000000000e+00  -5.1553046115058725e-02 -3.8479152108765596e-03 0.0000000000000000e+00  0.0000000000000000e+00 1.2892987344588288e-04 0.0000000000000000e+00  -6.3530818862408636e-05 1.1793004406191218e-04 0.0000000000000000e+00  -1.2334784447055408e-04 8.5485640775942248e-05 0.0000000000000000e+00  -1.7591481444985407e-04 3.1698964315089030e-05 0.0000000000000000e+00  -2.1773865441507016e-04 -4.3228047093599440e-05 0.0000000000000000e+00  -2.4533600271712755e-04 -1.3900562603699922e-04 0.0000000000000000e+00  -2.5525137648364603e-04 -2.5525137648354959e-04 0.0000000000000000e+00  -2.4408121549413539e-04 -3.9148206398713538e-04 0.0000000000000000e+00  -2.0849427860315456e-04 -5.4710543333894631e-04 0.0000000000000000e+00  -1.4525138483346446e-04 -7.2141146386158969e-04 0.0000000000000000e+00  -5.1226818722708255e-05 -9.1356279815628676e-04 0.0000000000000000e+00  7.6567055908071372e-05 -1.1225844096781723e-03 0.0000000000000000e+00  2.4095053525248979e-04 -1.3473527346084975e-03 0.0000000000000000e+00  4.4454087941245204e-04 -1.5865845805601965e-03 0.0000000000000000e+00  6.8970766517175938e-04 -1.8388261906972054e-03 0.0000000000000000e+00  9.7851550787176863e-04 -2.1024429065552436e-03 0.0000000000000000e+00  1.3126487246077952e-03 -2.3756099412976829e-03 0.0000000000000000e+00  1.6933099615928406e-03 -2.6563048467855349e-03 0.0000000000000000e+00  2.1210811709873080e-03 -2.9423023306642169e-03 0.0000000000000000e+00  2.5957302473441253e-03 -3.2311721478681357e-03 0.0000000000000000e+00  3.1159397212715844e-03 -3.5202808492485896e-03 0.0000000000000000e+00  3.6789247506312938e-03 -3.8067982093448137e-03 0.0000000000000000e+00  4.2798959053924630e-03 -4.0877091654901512e-03 0.0000000000000000e+00  4.9113077694889883e-03 -4.3598320693735019e-03 0.0000000000000000e+00  5.5618174467003002e-03 -4.6198439659621091e-03 0.0000000000000000e+00  6.2148586322885281e-03 -4.8643134613391660e-03 0.0000000000000000e+00  6.8467190929683694e-03 -5.0897415111087162e-03 0.0000000000000000e+00  7.4239959079904251e-03 -5.2926101540224958e-03 0.0000000000000000e+00  7.9002995686333396e-03 -5.4694388438872006e-03 0.0000000000000000e+00  8.2120935524694870e-03 -5.6168476256055677e-03 0.0000000000000000e+00  8.2736015337289952e-03 -5.7316260037589186e-03 0.0000000000000000e+00  7.9708031108724885e-03 -5.8108060142200140e-03 0.0000000000000000e+00  7.1546834314284921e-03 -5.8517377600020536e-03 0.0000000000000000e+00  5.6341094712344594e-03 -5.8521654800729635e-03 0.0000000000000000e+