<?xml version="1.0"?>
<VTKFile type="UnstructuredGrid"  version="0.1"  >
<UnstructuredGrid>
<Piece  NumberOfPoints="1681" NumberOfCells="3200">
<Points>
<DataArray  type="Float64"  NumberOfComponents="3"  format="ascii">0 0 0  0.5 0 0  1 0 0  1.5 0 0  2 0 0  2.5 0 0  3 0 0  3.5 0 0  4 0 0  4.5 0 0  5 0 0  5.5 0 0  6 0 0  6.5 0 0  7 0 0  7.5 0 0  8 0 0  8.5 0 0  9 0 0  9.5 0 0  10 0 0  10.5 0 0  11 0 0  11.5 0 0  12 0 0  12.5 0 0  13 0 0  13.5 0 0  14 0 0  14.5 0 0  15 0 0  15.5 0 0  16 0 0  16.5 0 0  17 0 0  17.5 0 0  18 0 0  18.5 0 0  19 0 0  19.5 0 0  20 0 0  0 0.5 0  0.5 0.5 0  1 0.5 0  1.5 0.5 0  2 0.5 0  2.5 0.5 0  3 0.5 0  3.5 0.5 0  4 0.5 0  4.5 0.5 0  5 0.5 0  5.5 0.5 0  6 0.5 0  6.5 0.5 0  7 0.5 0  7.5 0.5 0  8 0.5 0  8.5 0.5 0  9 0.5 0  9.5 0.5 0  10 0.5 0  10.5 0.5 0  11 0.5 0  11.5 0.5 0  12 0.5 0  12.5 0.5 0  13 0.5 0  13.5 0.5 0  14 0.5 0  14.5 0.5 0  15 0.5 0  15.5 0.5 0  16 0.5 0  16.5 0.5 0  17 0.5 0  17.5 0.5 0  18 0.5 0  18.5 0.5 0  19 0.5 0  19.5 0.5 0  20 0.5 0  0 1 0  0.5 1 0  1 1 0  1.5 1 0  2 1 0  2.5 1 0  3 1 0  3.5 1 0  4 1 0  4.5 1 0  5 1 0  5.5 1 0  6 1 0  6.5 1 0  7 1 0  7.5 1 0  8 1 0  8.5 1 0  9 1 0  9.5 1 0  10 1 0  10.5 1 0  11 1 0  11.5 1 0  12 1 0  12.5 1 0  13 1 0  13.5 1 0  14 1 0  14.5 1 0  15 1 0  15.5 1 0  16 1 0  16.5 1 0  17 1 0  17.5 1 0  18 1 0  18.5 1 0  19 1 0  19.5 1 0  20 1 0  0 1.5 0  0.5 1.5 0  1 1.5 0  1.5 1.5 0  2 1.5 0  2.5 1.5 0  3 1.5 0  3.5 1.5 0  4 1.5 0  4.5 1.5 0  5 1.5 0  5.5 1.5 0  6 1.5 0  6.5 1.5 0  7 1.5 0  7.5 1.5 0  8 1.5 0  8.5 1.5 0  9 1.5 0  9.5 1.5 0  10 1.5 0  10.5 1.5 0  11 1.5 0  11.5 1.5 0  12 1.5 0  12.5 1.5 0  13 1.5 0  13.5 1.5 0  14 1.5 0  14.5 1.5 0  15 1.5 0  15.5 1.5 0  16 1.5 0  16.5 1.5 0  17 1.5 0  17.5 1.5 0  18 1.5 0  18.5 1.5 0  19 1.5 0  19.5 1.5 0  20 1.5 0  0 2 0  0.5 2 0  1 2 0  1.5 2 0  2 2 0  2.5 2 0  3 2 0  3.5 2 0  4 2 0  4.5 2 0  5 2 0  5.5 2 0  6 2 0  6.5 2 0  7 2 0  7.5 2 0  8 2 0  8.5 2 0  9 2 0  9.5 2 0  10 2 0  10.5 2 0  11 2 0  11.5 2 0  12 2 0  12.5 2 0  13 2 0  13.5 2 0  14 2 0  14.5 2 0  15 2 0  15.5 2 0  16 2 0  16.5 2 0  17 2 0  17.5 2 0  18 2 0  18.5 2 0  19 2 0  19.5 2 0  20 2 0  0 2.5 0  0.5 2.5 0  1 2.5 0  1.5 2.5 0  2 2.5 0  2.5 2.5 0  3 2.5 0  3.5 2.5 0  4 2.5 0  4.5 2.5 0  5 2.5 0  5.5 2.5 0  6 2.5 0  6.5 2.5 0  7 2.5 0  7.5 2.5 0  8 2.5 0  8.5 2.5 0  9 2.5 0  9.5 2.5 0  10 2.5 0  10.5 2.5 0  11 2.5 0  11.5 2.5 0  12 2.5 0  12.5 2.5 0  13 2.5 0  13.5 2.5 0  14 2.5 0  14.5 2.5 0  15 2.5 0  15.5 2.5 0  16 2.5 0  16.5 2.5 0  17 2.5 0  17.5 2.5 0  18 2.5 0  18.5 2.5 0  19 2.5 0  19.5 2.5 0  20 2.5 0  0 3 0  0.5 3 0  1 3 0  1.5 3 0  2 3 0  2.5 3 0  3 3 0  3.5 3 0  4 3 0  4.5 3 0  5 3 0  5.5 3 0  6 3 0  6.5 3 0  7 3 0  7.5 3 0  8 3 0  8.5 3 0  9 3 0  9.5 3 0  10 3 0  10.5 3 0  11 3 0  11.5 3 0  12 3 0  12.5 3 0  13 3 0  13.5 3 0  14 3 0  14.5 3 0  15 3 0  15.5 3 0  16 3 0  16.5 3 0  17 3 0  17.5 3 0  18 3 0  18.5 3 0  19 3 0  19.5 3 0  20 3 0  0 3.5 0  0.5 3.5 0  1 3.5 0  1.5 3.5 0  2 3.5 0  2.5 3.5 0  3 3.5 0  3.5 3.5 0  4 3.5 0  4.5 3.5 0  5 3.5 0  5.5 3.5 0  6 3.5 0  6.5 3.5 0  7 3.5 0  7.5 3.5 0  8 3.5 0  8.5 3.5 0  9 3.5 0  9.5 3.5 0  10 3.5 0  10.5 3.5 0  11 3.5 0  11.5 3.5 0  12 3.5 0  12.5 3.5 0  13 3.5 0  13.5 3.5 0  14 3.5 0  14.5 3.5 0  15 3.5 0  15.5 3.5 0  16 3.5 0  16.5 3.5 0  17 3.5 0  17.5 3.5 0  18 3.5 0  18.5 3.5 0  19 3.5 0  19.5 3.5 0  20 3.5 0  0 4 0  0.5 4 0  1 4 0  1.5 4 0  2 4 0  2.5 4 0  3 4 0  3.5 4 0  4 4 0  4.5 4 0  5 4 0  5.5 4 0  6 4 0  6.5 4 0  7 4 0  7.5 4 0  8 4 0  8.5 4 0  9 4 0  9.5 4 0  10 4 0  10.5 4 0  11 4 0  11.5 4 0  12 4 0  12.5 4 0  13 4 0  13.5 4 0  14 4 0  14.5 4 0  15 4 0  15.5 4 0  16 4 0  16.5 4 0  17 4 0  17.5 4 0  18 4 0  18.5 4 0  19 4 0  19.5 4 0  20 4 0  0 4.5 0  0.5 4.5 0  1 4.5 0  1.5 4.5 0  2 4.5 0  2.5 4.5 0  3 4.5 0  3.5 4.5 0  4 4.5 0  4.5 4.5 0  5 4.5 0  5.5 4.5 0  6 4.5 0  6.5 4.5 0  7 4.5 0  7.5 4.5 0  8 4.5 0  8.5 4.5 0  9 4.5 0  9.5 4.5 0  10 4.5 0  10.5 4.5 0  11 4.5 0  11.5 4.5 0  12 4.5 0  12.5 4.5 0  13 4.5 0  13.5 4.5 0  14 4.5 0  14.5 4.5 0  15 4.5 0  15.5 4.5 0  16 4.5 0  16.5 4.5 0  17 4.5 0  17.5 4.5 0  18 4.5 0  18.5 4.5 0  19 4.5 0  19.5 4.5 0  20 4.5 0  0 5 0  0.5 5 0  1 5 0  1.5 5 0  2 5 0  2.5 5 0  3 5 0  3.5 5 0  4 5 0  4.5 5 0  5 5 0  5.5 5 0  6 5 0  6.5 5 0  7 5 0  7.5 5 0  8 5 0  8.5 5 0  9 5 0  9.5 5 0  10 5 0  10.5 5 0  11 5 0  11.5 5 0  12 5 0  12.5 5 0  13 5 0  13.5 5 0  14 5 0  14.5 5 0  15 5 0  15.5 5 0  16 5 0  16.5 5 0  17 5 0  17.5 5 0  18 5 0  18.5 5 0  19 5 0  19.5 5 0  20 5 0  0 5.5 0  0.5 5.5 0  1 5.5 0  1.5 5.5 0  2 5.5 0  2.5 5.5 0  3 5.5 0  3.5 5.5 0  4 5.5 0  4.5 5.5 0  5 5.5 0  5.5 5.5 0  6 5.5 0  6.5 5.5 0  7 5.5 0  7.5 5.5 0  8 5.5 0  8.5 5.5 0  9 5.5 0  9.5 5.5 0  10 5.5 0  10.5 5.5 0  11 5.5 0  11.5 5.5 0  12 5.5 0  12.5 5.5 0  13 5.5 0  13.5 5.5 0  14 5.5 0  14.5 5.5 0  15 5.5 0  15.5 5.5 0  16 5.5 0  16.5 5.5 0  17 5.5 0  17.5 5.5 0  18 5.5 0  18.5 5.5 0  19 5.5 0  19.5 5.5 0  20 5.5 0  0 6 0  0.5 6 0  1 6 0  1.5 6 0  2 6 0  2.5 6 0  3 6 0  3.5 6 0  4 6 0  4.5 6 0  5 6 0  5.5 6 0  6 6 0  6.5 6 0  7 6 0  7.5 6 0  8 6 0  8.5 6 0  9 6 0  9.5 6 0  10 6 0  10.5 6 0  11 6 0  11.5 6 0  12 6 0  12.5 6 0  13 6 0  13.5 6 0  14 6 0  14.5 6 0  15 6 0  15.5 6 0  16 6 0  16.5 6 0  17 6 0  17.5 6 0  18 6 0  18.5 6 0  19 6 0  19.5 6 0  20 6 0  0 6.5 0  0.5 6.5 0  1 6.5 0  1.5 6.5 0  2 6.5 0  2.5 6.5 0  3 6.5 0  3.5 6.5 0  4 6.5 0  4.5 6.5 0  5 6.5 0  5.5 6.5 0  6 6.5 0  6.5 6.5 0  7 6.5 0  7.5 6.5 0  8 6.5 0  8.5 6.5 0  9 6.5 0  9.5 6.5 0  10 6.5 0  10.5 6.5 0  11 6.5 0  11.5 6.5 0  12 6.5 0  12.5 6.5 0  13 6.5 0  13.5 6.5 0  14 6.5 0  14.5 6.5 0  15 6.5 0  15.5 6.5 0  16 6.5 0  16.5 6.5 0  17 6.5 0  17.5 6.5 0  18 6.5 0  18.5 6.5 0  19 6.5 0  19.5 6.5 0  20 6.5 0  0 7 0  0.5 7 0  1 7 0  1.5 7 0  2 7 0  2.5 7 0  3 7 0  3.5 7 0  4 7 0  4.5 7 0  5 7 0  5.5 7 0  6 7 0  6.5 7 0  7 7 0  7.5 7 0  8 7 0  8.5 7 0  9 7 0  9.5 7 0  10 7 0  10.5 7 0  11 7 0  11.5 7 0  12 7 0  12.5 7 0  13 7 0  13.5 7 0  14 7 0  14.5 7 0  15 7 0  15.5 7 0  16 7 0  16.5 7 0  17 7 0  17.5 7 0  18 7 0  18.5 7 0  19 7 0  19.5 7 0  20 7 0  0 7.5 0  0.5 7.5 0  1 7.5 0  1.5 7.5 0  2 7.5 0  2.5 7.5 0  3 7.5 0  3.5 7.5 0  4 7.5 0  4.5 7.5 0  5 7.5 0  5.5 7.5 0  6 7.5 0  6.5 7.5 0  7 7.5 0  7.5 7.5 0  8 7.5 0  8.5 7.5 0  9 7.5 0  9.5 7.5 0  10 7.5 0  10.5 7.5 0  11 7.5 0  11.5 7.5 0  12 7.5 0  12.5 7.5 0  13 7.5 0  13.5 7.5 0  14 7.5 0  14.5 7.5 0  15 7.5 0  15.5 7.5 0  16 7.5 0  16.5 7.5 0  17 7.5 0  17.5 7.5 0  18 7.5 0  18.5 7.5 0  19 7.5 0  19.5 7.5 0  20 7.5 0  0 8 0  0.5 8 0  1 8 0  1.5 8 0  2 8 0  2.5 8 0  3 8 0  3.5 8 0  4 8 0  4.5 8 0  5 8 0  5.5 8 0  6 8 0  6.5 8 0  7 8 0  7.5 8 0  8 8 0  8.5 8 0  9 8 0  9.5 8 0  10 8 0  10.5 8 0  11 8 0  11.5 8 0  12 8 0  12.5 8 0  13 8 0  13.5 8 0  14 8 0  14.5 8 0  15 8 0  15.5 8 0  16 8 0  16.5 8 0  17 8 0  17.5 8 0  18 8 0  18.5 8 0  19 8 0  19.5 8 0  20 8 0  0 8.5 0  0.5 8.5 0  1 8.5 0  1.5 8.5 0  2 8.5 0  2.5 8.5 0  3 8.5 0  3.5 8.5 0  4 8.5 0  4.5 8.5 0  5 8.5 0  5.5 8.5 0  6 8.5 0  6.5 8.5 0  7 8.5 0  7.5 8.5 0  8 8.5 0  8.5 8.5 0  9 8.5 0  9.5 8.5 0  10 8.5 0  10.5 8.5 0  11 8.5 0  11.5 8.5 0  12 8.5 0  12.5 8.5 0  13 8.5 0  13.5 8.5 0  14 8.5 0  14.5 8.5 0  15 8.5 0  15.5 8.5 0  16 8.5 0  16.5 8.5 0  17 8.5 0  17.5 8.5 0  18 8.5 0  18.5 8.5 0  19 8.5 0  19.5 8.5 0  20 8.5 0  0 9 0  0.5 9 0  1 9 0  1.5 9 0  2 9 0  2.5 9 0  3 9 0  3.5 9 0  4 9 0  4.5 9 0  5 9 0  5.5 9 0  6 9 0  6.5 9 0  7 9 0  7.5 9 0  8 9 0  8.5 9 0  9 9 0  9.5 9 0  10 9 0  10.5 9 0  11 9 0  11.5 9 0  12 9 0  12.5 9 0  13 9 0  13.5 9 0  14 9 0  14.5 9 0  15 9 0  15.5 9 0  16 9 0  16.5 9 0  17 9 0  17.5 9 0  18 9 0  18.5 9 0  19 9 0  19.5 9 0  20 9 0  0 9.5 0  0.5 9.5 0  1 9.5 0  1.5 9.5 0  2 9.5 0  2.5 9.5 0  3 9.5 0  3.5 9.5 0  4 9.5 0  4.5 9.5 0  5 9.5 0  5.5 9.5 0  6 9.5 0  6.5 9.5 0  7 9.5 0  7.5 9.5 0  8 9.5 0  8.5 9.5 0  9 9.5 0  9.5 9.5 0  10 9.5 0  10.5 9.5 0  11 9.5 0  11.5 9.5 0  12 9.5 0  12.5 9.5 0  13 9.5 0  13.5 9.5 0  14 9.5 0  14.5 9.5 0  15 9.5 0  15.5 9.5 0  16 9.5 0  16.5 9.5 0  17 9.5 0  17.5 9.5 0  18 9.5 0  18.5 9.5 0  19 9.5 0  19.5 9.5 0  20 9.5 0  0 10 0  0.5 10 0  1 10 0  1.5 10 0  2 10 0  2.5 10 0  3 10 0  3.5 10 0  4 10 0  4.5 10 0  5 10 0  5.5 10 0  6 10 0  6.5 10 0  7 10 0  7.5 10 0  8 10 0  8.5 10 0  9 10 0  9.5 10 0  10 10 0  10.5 10 0  11 10 0  11.5 10 0  12 10 0  12.5 10 0  13 10 0  13.5 10 0  14 10 0  14.5 10 0  15 10 0  15.5 10 0  16 10 0  16.5 10 0  17 10 0  17.5 10 0  18 10 0  18.5 10 0  19 10 0  19.5 10 0  20 10 0  0 10.5 0  0.5 10.5 0  1 10.5 0  1.5 10.5 0  2 10.5 0  2.5 10.5 0  3 10.5 0  3.5 10.5 0  4 10.5 0  4.5 10.5 0  5 10.5 0  5.5 10.5 0  6 10.5 0  6.5 10.5 0  7 10.5 0  7.5 10.5 0  8 10.5 0  8.5 10.5 0  9 10.5 0  9.5 10.5 0  10 10.5 0  10.5 10.5 0  11 10.5 0  11.5 10.5 0  12 10.5 0  12.5 10.5 0  13 10.5 0  13.5 10.5 0  14 10.5 0  14.5 10.5 0  15 10.5 0  15.5 10.5 0  16 10.5 0  16.5 10.5 0  17 10.5 0  17.5 10.5 0  18 10.5 0  18.5 10.5 0  19 10.5 0  19.5 10.5 0  20 10.5 0  0 11 0  0.5 11 0  1 11 0  1.5 11 0  2 11 0  2.5 11 0  3 11 0  3.5 11 0  4 11 0  4.5 11 0  5 11 0  5.5 11 0  6 11 0  6.5 11 0  7 11 0  7.5 11 0  8 11 0  8.5 11 0  9 11 0  9.5 11 0  10 11 0  10.5 11 0  11 11 0  11.5 11 0  12 11 0  12.5 11 0  13 11 0  13.5 11 0  14 11 0  14.5 11 0  15 11 0  15.5 11 0  16 11 0  16.5 11 0  17 11 0  17.5 11 0  18 11 0  18.5 11 0  19 11 0  19.5 11 0  20 11 0  0 11.5 0  0.5 11.5 0  1 11.5 0  1.5 11.5 0  2 11.5 0  2.5 11.5 0  3 11.5 0  3.5 11.5 0  4 11.5 0  4.5 11.5 0  5 11.5 0  5.5 11.5 0  6 11.5 0  6.5 11.5 0  7 11.5 0  7.5 11.5 0  8 11.5 0  8.5 11.5 0  9 11.5 0  9.5 11.5 0  10 11.5 0  10.5 11.5 0  11 11.5 0  11.5 11.5 0  12 11.5 0  12.5 11.5 0  13 11.5 0  13.5 11.5 0  14 11.5 0  14.5 11.5 0  15 11.5 0  15.5 11.5 0  16 11.5 0  16.5 11.5 0  17 11.5 0  17.5 11.5 0  18 11.5 0  18.5 11.5 0  19 11.5 0  19.5 11.5 0  20 11.5 0  0 12 0  0.5 12 0  1 12 0  1.5 12 0  2 12 0  2.5 12 0  3 12 0  3.5 12 0  4 12 0  4.5 12 0  5 12 0  5.5 12 0  6 12 0  6.5 12 0  7 12 0  7.5 12 0  8 12 0  8.5 12 0  9 12 0  9.5 12 0  10 12 0  10.5 12 0  11 12 0  11.5 12 0  12 12 0  12.5 12 0  13 12 0  13.5 12 0  14 12 0  14.5 12 0  
[...]
<PointData  Vectors="f_5623-0"> 
<DataArray  type="Float64"  Name="f_5623-0"  NumberOfComponents="3" format="ascii">0.0000000000000000e+00 0.0000000000000000e+00 0.0000000000000000e+00  1.9871966113720345e-06 0.0000000000000000e+00 0.0000000000000000e+00  1.3545902456713666e-05 0.0000000000000000e+00 0.0000000000000000e+00  4.8001865338988457e-05 0.0000000000000000e+00 0.0000000000000000e+00  1.1668433237757781e-04 0.0000000000000000e+00 0.0000000000000000e+00  2.3055995086279741e-04 0.0000000000000000e+00 0.0000000000000000e+00  4.0024273959521003e-04 0.0000000000000000e+00 0.0000000000000000e+00  6.3587028433923507e-04 0.0000000000000000e+00 0.0000000000000000e+00  9.4695268738618533e-04 0.0000000000000000e+00 0.0000000000000000e+00  1.3421919178325642e-03 0.0000000000000000e+00 0.0000000000000000e+00  1.8292618331520679e-03 0.0000000000000000e+00 0.0000000000000000e+00  2.4145379647312003e-03 0.0000000000000000e+00 0.0000000000000000e+00  3.1027645732006359e-03 0.0000000000000000e+00 0.0000000000000000e+00  3.8966444616247353e-03 0.0000000000000000e+00 0.0000000000000000e+00  4.7963348124306507e-03 0.0000000000000000e+00 0.0000000000000000e+00  5.7988300698076471e-03 0.0000000000000000e+00 0.0000000000000000e+00  6.8972108353730485e-03 0.0000000000000000e+00 0.0000000000000000e+00  8.0797361757109117e-03 0.0000000000000000e+00 0.0000000000000000e+00  9.3287560642117441e-03 0.0000000000000000e+00 0.0000000000000000e+00  1.0619421444702525e-02 0.0000000000000000e+00 0.0000000000000000e+00  1.1918172320420105e-02 0.0000000000000000e+00 0.0000000000000000e+00  1.3180990217239626e-02 0.0000000000000000e+00 0.0000000000000000e+00  1.4351411373788725e-02 0.0000000000000000e+00 0.0000000000000000e+00  1.5358312188630652e-02 0.0000000000000000e+00 0.0000000000000000e+00  1.6113499873941142e-02 0.0000000000000000e+00 0.0000000000000000e+00  1.6509169705108941e-02 0.0000000000000000e+00 0.0000000000000000e+00  1.6415325847132570e-02 0.0000000000000000e+00 0.0000000000000000e+00  1.5677304460646573e-02 0.0000000000000000e+00 0.0000000000000000e+00  1.4113582889051516e-02 0.0000000000000000e+00 0.0000000000000000e+00  1.1514102155750931e-02 0.0000000000000000e+00 0.0000000000000000e+00  7.6393641214540006e-03 0.0000000000000000e+00 0.0000000000000000e+00  2.2205795319373330e-03 0.0000000000000000e+00 0.0000000000000000e+00  -5.0388721617671680e-03 0.0000000000000000e+00 0.0000000000000000e+00  -1.4460465511086637e-02 0.0000000000000000e+00 0.0000000000000000e+00  -2.6385928297774811e-02 0.0000000000000000e+00 0.0000000000000000e+00  -4.1171051034233651e-02 0.0000000000000000e+00 0.0000000000000000e+00  -5.9178101977273453e-02 0.0000000000000000e+00 0.0000000000000000e+00  -8.0767182994968378e-02 0.0000000000000000e+00 0.0000000000000000e+00  -1.0628685301533169e-01 0.0000000000000000e+00 0.0000000000000000e+00  -1.3606363124893797e-01 0.0000000000000000e+00 0.0000000000000000e+00  -1.7038705153961650e-01 0.0000000000000000e+00 0.0000000000000000e+00  0.0000000000000000e+00 1.9871966064590482e-06 0.0000000000000000e+00  -5.6809372377978987e-06 -5.6809372376009601e-06 0.0000000000000000e+00  5.5877180191888838e-07 -2.4202068872607405e-05 0.0000000000000000e+00  2.9408884837487111e-05 -5.3740751761964729e-05 0.0000000000000000e+00  9.2311305380957979e-05 -9.4596501565876072e-05 0.0000000000000000e+00  2.0034672313537662e-04 -1.4676514145721590e-04 0.0000000000000000e+00  3.6417526552869891e-04 -2.1007339708899533e-04 0.0000000000000000e+00  5.9395502217950776e-04 -2.8425160654146339e-04 0.0000000000000000e+00  8.9920908216416240e-04 -3.6895724577604578e-04 0.0000000000000000e+00  1.2886512454268976e-03 -4.6377967024103736e-04 0.0000000000000000e+00  1.7699683938617865e-03 -5.6823848496257486e-04 0.0000000000000000e+00  2.3495512531734129e-03 -6.8177972976644268e-04 0.0000000000000000e+00  3.0321618997633535e-03 -8.0377128275254024e-04 0.0000000000000000e+00  3.8205237807005430e-03 -9.3349802608456035e-04 0.0000000000000000e+00  4.7148176081946774e-03 -1.0701570671938661e-03 0.0000000000000000e+00  5.7120641810853717e-03 -1.2128532451218484e-03 0.0000000000000000e+00  6.8053731074682305e-03 -1.3605951496278436e-03 0.0000000000000000e+00  7.9830348246884425e-03 -1.5122918997637121e-03 0.0000000000000000e+00  9.2274326353199466e-03 -1.6667509571291156e-03 0.0000000000000000e+00  1.0513752246447877e-02 -1.8226772812079811e-03 0.0000000000000000e+00  1.1808469223546978e-02 -1.9786741684330003e-03 0.0000000000000000e+00  1.3067600727590589e-02 -2.1332461498998717e-03 0.0000000000000000e+00  1.4234717923533138e-02 -2.2848043524110531e-03 0.0000000000000000e+00  1.5238730644694767e-02 -2.4316747485192227e-03 0.0000000000000000e+00  1.5991477335434955e-02 -2.5721097273013137e-03 0.0000000000000000e+00  1.6385181749648120e-02 -2.7043033982355829e-03 0.0000000000000000e+00  1.6289873477549392e-02 -2.8264109847557436e-03 0.0000000000000000e+00  1.5550911079597640e-02 -2.9365725562148482e-03 0.0000000000000000e+00  1.3986791659706024e-02 -3.0329411741655899e-03 0.0000000000000000e+00  1.1387474054704491e-02 -3.1137152791787192e-03 0.0000000000000000e+00  7.5134768127881621e-03 -3.1771748174917584e-03 0.0000000000000000e+00  2.0960268444387255e-03 -3.2217202171641872e-03 0.0000000000000000e+00  -5.1614809444787578e-03 -3.2459129131181784e-03 0.0000000000000000e+00  -1.4580508261255103e-02 -3.2485157639271069e-03 0.0000000000000000e+00  -2.6502777962667857e-02 -3.2285315044755930e-03 0.0000000000000000e+00  -4.1284096267991129e-02 -3.1852373694714422e-03 0.0000000000000000e+00  -5.9286800136292242e-02 -3.1182135592445056e-03 0.0000000000000000e+00  -8.0871211828414835e-02 -3.0273581269841007e-03 0.0000000000000000e+00  -1.0638664646858882e-01 -2.9128520054457091e-03 0.0000000000000000e+00  -1.3616278448521194e-01 -2.7749118433008542e-03 0.0000000000000000e+00  -1.7050364712883184e-01 -2.6127829783380756e-03 0.0000000000000000e+00  0.0000000000000000e+00 1.3545902453932694e-05 0.0000000000000000e+00  -2.4202068873641012e-05 5.5877180228787425e-07 0.0000000000000000e+00  -3.5705269307979134e-05 -3.5705269308564108e-05 0.0000000000000000e+00  -2.4366837157624039e-05 -9.4884536951198506e-05 0.0000000000000000e+00  2.1031635154806136e-05 -1.7687263526473758e-04 0.0000000000000000e+00  1.1153374106579729e-04 -2.8144642144927660e-04 0.0000000000000000e+00  2.5781821543119273e-04 -4.0823641429935467e-04 0.0000000000000000e+00  4.7007174315459479e-04 -5.5672483796442851e-04 0.0000000000000000e+00  7.5784816701988575e-04 -7.2625061987772826e-04 0.0000000000000000e+00  1.1298950618936628e-03 -9.1601138689430695e-04 0.0000000000000000e+00  1.5939380748292793e-03 -1.1250608949001661e-03 0.0000000000000000e+00  2.1564132920728176e-03 -1.3523030802895539e-03 0.0000000000000000e+00  2.8221358531487963e-03 -1.5964841076858683e-03 0.0000000000000000e+00  3.5938906659694924e-03 -1.8561834389547228e-03 0.0000000000000000e+00  4.4719286606407036e-03 -2.1298046599327086e-03 0.0000000000000000e+00  5.4533496714783206e-03 -2.4155666481693919e-03 0.0000000000000000e+00  6.5313509286807512e-03 -2.7114956100461446e-03 0.0000000000000000e+00  7.6943185453320385e-03 -3.0154185169582949e-03 0.0000000000000000e+00  8.9247386991559655e-03 -3.3249585027349390e-03 0.0000000000000000e+00  1.0197905974893222e-02 -3.6375328332893873e-03 0.0000000000000000e+00  1.1480409259926463e-02 -3.9503541167432007e-03 0.0000000000000000e+00  1.2728381550264548e-02 -4.2604354818259766e-03 0.0000000000000000e+00  1.3885510054704297e-02 -4.5646005087956786e-03 0.0000000000000000e+00  1.4880818196443407e-02 -4.8594987427035535e-03 0.0000000000000000e+00  1.5626252566902112e-02 -5.1416276438456584e-03 0.0000000000000000e+00  1.6014136360986277e-02 -5.4073618190789083e-03 0.0000000000000000e+00  1.5914586435712162e-02 -5.6529903114746457e-03 0.0000000000000000e+00  1.5173032854119880e-02 -5.8747625774737428e-03 0.0000000000000000e+00  1.3608024833160589e-02 -6.0689435222930346e-03 0.0000000000000000e+00  1.1009550347294771e-02 -6.2318775645838131e-03 0.0000000000000000e+00  7.1381305977946388e-03 -6.3600611399980134e-03 0.0000000000000000e+00  1.7249651890491914e-03 -6.4502223267754811e-03 0.0000000000000000e+00  -5.5266118783928843e-03 -6.4994054120562951e-03 0.0000000000000000e+00  -1.4938161139991800e-02 -6.5050572637082209e-03 0.0000000000000000e+00  -2.6851548390634843e-02 -6.4651113392774897e-03 0.0000000000000000e+00  -4.1622777492894843e-02 -6.3780638354098453e-03 0.0000000000000000e+00  -5.9614457863936127e-02 -6.2430340918068865e-03 0.0000000000000000e+00  -8.1187297005397036e-02 -6.0597969238410437e-03 0.0000000000000000e+00  -1.0669116371342607e-01 -5.8287732562130965e-03 0.0000000000000000e+00  -1.3645637801800956e-01 -5.5510186918014777e-03 0.0000000000000000e+00  -1.7078579160365148e-01 -5.2286710533780865e-03 0.0000000000000000e+00  0.0000000000000000e+00 4.8001865338995809e-05 0.0000000000000000e+00  -5.3740751764467508e-05 2.9408884836722031e-05 0.0000000000000000e+00  -9.4884536952246550e-05 -2.4366837159281391e-05 0.0000000000000000e+00  -1.1291461244308531e-04 -1.1291461244377923e-04 0.0000000000000000e+00  -9.6796639473999035e-05 -2.3589148888546657e-04 0.0000000000000000e+00  -3.5540757726572854e-05 -3.9285200393520417e-04 0.0000000000000000e+00  8.1525662651865023e-05 -5.8318143341969889e-04 0.0000000000000000e+00  2.6460812084594647e-04 -8.0608166468646380e-04 0.0000000000000000e+00  5.2329537636882045e-04 -1.0605627892058156e-03 0.0000000000000000e+00  8.6638282784734771e-04 -1.3454340498423849e-03 0.0000000000000000e+00  1.3016563376341342e-03 -1.6592934597596156e-03 0.0000000000000000e+00  1.8356251393851707e-03 -2.0005159766881488e-03 0.0000000000000000e+00  2.4731912604996952e-03 -2.3672404520774259e-03 0.0000000000000000e+00  3.2172409527456906e-03 -2.7573558205977958e-03 0.0000000000000000e+00  4.0681414006356132e-03 -3.1684871261000768e-03 0.0000000000000000e+00  5.0231237082403735e-03 -3.5979820458257252e-03 0.0000000000000000e+00  6.0755310857606836e-03 -4.0428986228167310e-03 0.0000000000000000e+00  7.2139095695795659e-03 -4.4999949692319293e-03 0.0000000000000000e+00  8.4209179245473172e-03 -4.9657217684908259e-03 0.0000000000000000e+00  9.6720341443462306e-03 -5.4362184814177846e-03 0.0000000000000000e+00  1.0934038895087230e-02 -5.9073142475994647e-03 0.0000000000000000e+00  1.2163262217631752e-02 -6.3745345641451909e-03 0.0000000000000000e+00  1.3303589844826332e-02 -6.8331149140608777e-03 0.0000000000000000e+00  1.4284240716072318e-02 -7.2780225972103613e-03 0.0000000000000000e+00  1.5017348747343600e-02 -7.7039880759397234e-03 0.0000000000000000e+00  1.5395410415420930e-02 -8.1055471658467680e-03 0.0000000000000000e+00  1.5288695361067410e-02 -8.4770953524394167e-03 0.0000000000000000e+00  1.4542758975538202e-02 -8.8129553584455674e-03 0.0000000000000000e+00  1.2976241038412219e-02 -9.1074587772638806e-03 0.0000000000000000e+00  1.0379177858217402e-02 -9.3550420708689627e-03 0.0000000000000000e+00  6.5120893745000555e-03 -9.5503564546510506e-03 0.0000000000000000e+00  1.1061173479490335e-03 -9.6883901236012784e-03 0.0000000000000000e+00  -6.1355249525069412e-03 -9.7645999154557239e-03 0.0000000000000000e+00  -1.5534587012035066e-02 -9.7750479037310538e-03 0.0000000000000000e+00  -2.7433195796233850e-02 -9.7165366629021633e-03 0.0000000000000000e+00  -4.2187690483223163e-02 -9.5867352489088127e-03 0.0000000000000000e+00  -6.0161087553362989e-02 -9.3842870195727963e-03 0.0000000000000000e+00  -8.1714560365511571e-02 -9.1088933006016823e-03 0.0000000000000000e+00  -1.0719846449930959e-01 -8.7613838143517971e-03 0.0000000000000000e+00  -1.3694354141067808e-01 -8.3438400846214608e-03 0.0000000000000000e+00  -1.7125299210224740e-01 -7.8599457533258896e-03 0.0000000000000000e+00  0.0000000000000000e+00 1.1668433237924320e-04 0.0000000000000000e+00  -9.4596501565224317e-05 9.2311305379442292e-05 0.0000000000000000e+00  -1.7687263526363652e-04 2.1031635153544897e-05 0.0000000000000000e+00  -2.3589148888778343e-04 -9.6796639474250231e-05 0.0000000000000000e+00  -2.6067739929805622e-04 -2.6067739929618684e-04 0.0000000000000000e+00  -2.4027954160515686e-04 -4.6997273981770713e-04 0.0000000000000000e+00  -1.6402729145921849e-04 -7.2384019278878007e-04 0.0000000000000000e+00  -2.1692846957872676e-05 -1.0212093160323200e-03 0.0000000000000000e+00  1.9635424049853448e-04 -1.3607664793816134e-03 0.0000000000000000e+00  4.9896944026599894e-04 -1.7409398216547275e-03 0.0000000000000000e+00  8.9401733673013064e-04 -2.1598827245321093e-03 0.0000000000000000e+00  1.3881052750176156e-03 -2.6154558240284436e-03 0.0000000000000000e+00  1.9862536453226593e-03 -3.1052079475217377e-03 0.0000000000000000e+00  2.6914880780169246e-03 -3.6263564824507129e-03 0.0000000000000000e+00  3.5043366550469458e-03 -4.1757677847141022e-03 0.0000000000000000e+00  4.4222130092440989e-03 -4.7499383433824080e-03 0.0000000000000000e+00  5.4386641250446901e-03 -5.3449775298290278e-03 0.0000000000000000e+00  6.5424600781209723e-03 -5.9565928717617159e-03 0.0000000000000000e+00  7.7165022726316274e-03 -6.5800789089698383e-03 0.0000000000000000e+00  8.9365275053901704e-03 -7.2103108101036614e-03 0.0000000000000000e+00  1.0169588119310419e-02 -7.8417440585446859e-03 0.0000000000000000e+00  1.1372294484594887e-02 -8.4684216500558757e-03 0.0000000000000000e+00  1.2488816096718118e-02 -9.0839903806283710e-03 0.0000000000000000e+00  1.3448652821854075e-02 -9.6817279320424339e-03 0.0000000000000000e+00  1.4164209319743689e-02 -1.0254582571161623e-02 0.0000000000000000e+00  1.4528234209031887e-02 -1.0795227343330745e-02 0.0000000000000000e+00  1.4411221234726755e-02 -1.1296130625298582e-02 0.0000000000000000e+00  1.3658911524303438e-02 -1.1749644756983306e-02 0.0000000000000000e+00  1.2090081211879046e-02 -1.2148114126845751e-02 0.0000000000000000e+00  9.4948422061280398e-03 -1.2484003460942842e-02 0.0000000000000000e+00  5.6337180188550775e-03 -1.2750046077589415e-02 0.0000000000000000e+00  2.3777138788735251e-04 -1.2939410453935131e-02 0.0000000000000000e+00  -6.9899551319358927e-03 -1.3045881596309882e-02 0.0000000000000000e+00  -1.6371480114277474e-02 -1.3064051499502743e-02 0.0000000000000000e+00  -2.8249301079657525e-02 -1.2989510672917452e-02 0.0000000000000000e+00  -4.2980227222767620e-02 -1.2819030853001267e-02 0.0000000000000000e+00  -6.0927835721798086e-02 -1.2550728730387201e-02 0.0000000000000000e+00  -8.2453935410030446e-02 -1.2184203753219224e-02 0.0000000000000000e+00  -1.0790957525904334e-01 -1.1720651226743676e-02 0.0000000000000000e+00  -1.3762625347724700e-01 -1.1162955693833125e-02 0.0000000000000000e+00  -1.7190808333440935e-01 -1.0515708587550991e-02 0.0000000000000000e+00  0.0000000000000000e+00 2.3055995086411187e-04 0.0000000000000000e+00  -1.4676514145803431e-04 2.0034672313308662e-04 0.0000000000000000e+00  -2.8144642144985101e-04 1.1153374106543436e-04 0.0000000000000000e+00  -3.9285200393773898e-04 -3.5540757726321258e-05 0.0000000000000000e+00  -4.6997273981915340e-04 -2.4027954160645593e-04 0.0000000000000000e+00  -5.0187734760911800e-04 -5.0187734760879967e-04 0.0000000000000000e+00  -4.7789166178460729e-04 -8.1928293454424630e-04 0.0000000000000000e+00  -3.8776018831510029e-04 -1.1911712914464685e-03 0.0000000000000000e+00  -2.2180239280989139e-04 -1.6159227875972772e-03 0.0000000000000000e+00  2.8909785437569914e-05 -2.0916027525126491e-03 0.0000000000000000e+00  3.7233717820925278e-04 -2.6159395211206877e-03 0.0000000000000000e+00  8.1520848584430640e-04 -3.1863007468545266e-03 0.0000000000000000e+00  1.3626919501067661e-03 -3.7996683702793124e-03 0.0000000000000000e+00  2.0179886853303403e-03 -4.4526128552293065e-03 0.0000000000000000e+00  2.7818306406525439e-03 -5.1412674347964607e-03 0.0000000000000000e+00  3.6518639467430936e-03 -5.8613032278986782e-03 0.0000000000000000e+00  4.6218963438800975e-03 -6.6079062159285825e-03 0.0000000000000000e+00  5.6809858109967059e-03 -7.3757572104948639e-03 0.0000000000000000e+00  6.8123468344348549e-03 -8.1590160972307008e-03 0.0000000000000000e+00  7.9920515247621660e-03 -8.9513118064369832e-03 0.0000000000000000e+00  9.1875057231281566e-03 -9.7457396381918672e-03 0.0000000000000000e+00  1.0355686218317740e-02 -1.0534867756376165e-02 0.0000000000000000e+00  1.1441135254164472e-02 -1.1310754858960300e-02 0.0000000000000000e+00  1.2373723763982655e-02 -1.2064981222478495e-02 0.0000000000000000e+00  1.3066216294614437e-02 -1.2788695490855829e-02 0.0000000000000000e+00  1.3411699159874738e-02 -1.3472679704845761e-02 0.0000000000000000e+00  1.3280969122956126e-02 -1.4107435103839458e-02 0.0000000000000000e+00  1.2520021829085433e-02 -1.4683291110697917e-02 0.0000000000000000e+00  1.0947824535086713e-02 -1.5190539543770455e-02 0.0000000000000000e+00  8.3546013531498615e-03 -1.5619595377631957e-02 0.0000000000000000e+00  4.5008935807344906e-03 -1.5961184179433121e-02 0.0000000000000000e+00  -8.8232725542377265e-04 -1.6206554585693481e-02 0.0000000000000000e+00  -8.0922313346019747e-03 -1.6347711830514051e-02 0.0000000000000000e+00  -1.7451180630256077e-02 -1.6377665500375067e-02 0.0000000000000000e+00  -2.9302151066847842e-02 -1.6290681689514204e-02 0.0000000000000000e+00  -4.4002563536663528e-02 -1.6082527129483451e-02 0.0000000000000000e+00  -6.1916732003299356e-02 -1.5750691368146340e-02 0.0000000000000000e+00  -8.3407313857225912e-02 -1.5294572818146055e-02 0.0000000000000000e+00  -1.0882630280208468e-01 -1.4715612704944103e-02 0.0000000000000000e+00  -1.3850621342484942e-01 -1.4017346553407372e-02 0.0000000000000000e+00  -1.7275214862733893e-01 -1.3205291318398121e-02 0.0000000000000000e+00  0.0000000000000000e+00 4.0024273959048654e-04 0.0000000000000000e+00  -2.1007339708795940e-04 3.6417526552912771e-04 0.0000000000000000e+00  -4.0823641429691435e-04 2.5781821542986453e-04 0.0000000000000000e+00  -5.8318143341762265e-04 8.1525662653316337e-05 0.0000000000000000e+00  -7.2384019278745734e-04 -1.6402729145847063e-04 0.0000000000000000e+00  -8.1928293454344334e-04 -4.7789166178397238e-04 0.0000000000000000e+00  -8.5882743290372886e-04 -8.5882743290586702e-04 0.0000000000000000e+00  -8.3218703268429382e-04 -1.3052757904740309e-03 0.0000000000000000e+00  -7.2962480942802407e-04 -1.8153337671869664e-03 0.0000000000000000e+00  -5.4212959917311610e-04 -2.3867286057597708e-03 0.0000000000000000e+00  -2.6162882518570283e-04 -3.0167903103859250e-03 0.0000000000000000e+00  1.1874868823711096e-04 -3.7024221397446216e-03 0.0000000000000000e+00  6.0434634709800438e-04 -4.4400694087061120e-03 0.0000000000000000e+00  1.1985747460533543e-03 -5.2256872601270333e-03 0.0000000000000000e+00  1.9024107758863189e-03 -6.0547082515053025e-03 0.0000000000000000e+00  2.7137814996871638e-03 -6.9220107569462914e-03 0.0000000000000000e+00  3.6268113613091521e-03 -7.8218893435644705e-03 0.0000000000000000e+00  4.6309097061643613e-03 -8.7480284540217626e-03 0.0000000000000000e+00  5.7096749054003290e-03 -9.6934809169913535e-03 0.0000000000000000e+00  6.8395921365351836e-03 -1.0650653016077739e-02 0.0000000000000000e+00  7.9885048012249254e-03 -1.1611298075421595e-02 0.0000000000000000e+00  9.1138455387106011e-03 -1.2566520765776903e-02 0.0000000000000000e+00  1.0160622855959579e-02 -1.3506794594258352e-02 0.0000000000000000e+00  1.1059174666091754e-02 -1.4421995305341292e-02 0.0000000000000000e+00  1.1722721580297246e-02 -1.5301453171390164e-02 0.0000000000000000e+00  1.2044781425295836e-02 -1.6134027355121153e-02 0.0000000000000000e+00  1.1896542298353354e-02 -1.6908205630340206e-02 0.0000000000000000e+00  1.1124333516420889e-02 -1.7612232669709012e-02 0.0000000000000000e+00  9.5473793169246462e-03 -1.8234269738023792e-02 0.0000000000000000e+00  6.9560640731766302e-03 -1.8762587825872246e-02 0.0000000000000000e+00  3.1109724316841498e-03 -1.9185794869273531e-02 0.0000000000000000e+00  -2.2570168456778989e-03 -1.9493095594069570e-02 0.0000000000000000e+00  -9.4453195725493731e-03 -1.9674579645064427e-02 0.0000000000000000e+00  -1.8776708875604189e-02 -1.9721530104287