<?xml version="1.0"?>
<VTKFile type="UnstructuredGrid"  version="0.1"  >
<UnstructuredGrid>
<Piece  NumberOfPoints="1681" NumberOfCells="3200">
<Points>
<DataArray  type="Float64"  NumberOfComponents="3"  format="ascii">0 0 0  0.5 0 0  1 0 0  1.5 0 0  2 0 0  2.5 0 0  3 0 0  3.5 0 0  4 0 0  4.5 0 0  5 0 0  5.5 0 0  6 0 0  6.5 0 0  7 0 0  7.5 0 0  8 0 0  8.5 0 0  9 0 0  9.5 0 0  10 0 0  10.5 0 0  11 0 0  11.5 0 0  12 0 0  12.5 0 0  13 0 0  13.5 0 0  14 0 0  14.5 0 0  15 0 0  15.5 0 0  16 0 0  16.5 0 0  17 0 0  17.5 0 0  18 0 0  18.5 0 0  19 0 0  19.5 0 0  20 0 0  0 0.5 0  0.5 0.5 0  1 0.5 0  1.5 0.5 0  2 0.5 0  2.5 0.5 0  3 0.5 0  3.5 0.5 0  4 0.5 0  4.5 0.5 0  5 0.5 0  5.5 0.5 0  6 0.5 0  6.5 0.5 0  7 0.5 0  7.5 0.5 0  8 0.5 0  8.5 0.5 0  9 0.5 0  9.5 0.5 0  10 0.5 0  10.5 0.5 0  11 0.5 0  11.5 0.5 0  12 0.5 0  12.5 0.5 0  13 0.5 0  13.5 0.5 0  14 0.5 0  14.5 0.5 0  15 0.5 0  15.5 0.5 0  16 0.5 0  16.5 0.5 0  17 0.5 0  17.5 0.5 0  18 0.5 0  18.5 0.5 0  19 0.5 0  19.5 0.5 0  20 0.5 0  0 1 0  0.5 1 0  1 1 0  1.5 1 0  2 1 0  2.5 1 0  3 1 0  3.5 1 0  4 1 0  4.5 1 0  5 1 0  5.5 1 0  6 1 0  6.5 1 0  7 1 0  7.5 1 0  8 1 0  8.5 1 0  9 1 0  9.5 1 0  10 1 0  10.5 1 0  11 1 0  11.5 1 0  12 1 0  12.5 1 0  13 1 0  13.5 1 0  14 1 0  14.5 1 0  15 1 0  15.5 1 0  16 1 0  16.5 1 0  17 1 0  17.5 1 0  18 1 0  18.5 1 0  19 1 0  19.5 1 0  20 1 0  0 1.5 0  0.5 1.5 0  1 1.5 0  1.5 1.5 0  2 1.5 0  2.5 1.5 0  3 1.5 0  3.5 1.5 0  4 1.5 0  4.5 1.5 0  5 1.5 0  5.5 1.5 0  6 1.5 0  6.5 1.5 0  7 1.5 0  7.5 1.5 0  8 1.5 0  8.5 1.5 0  9 1.5 0  9.5 1.5 0  10 1.5 0  10.5 1.5 0  11 1.5 0  11.5 1.5 0  12 1.5 0  12.5 1.5 0  13 1.5 0  13.5 1.5 0  14 1.5 0  14.5 1.5 0  15 1.5 0  15.5 1.5 0  16 1.5 0  16.5 1.5 0  17 1.5 0  17.5 1.5 0  18 1.5 0  18.5 1.5 0  19 1.5 0  19.5 1.5 0  20 1.5 0  0 2 0  0.5 2 0  1 2 0  1.5 2 0  2 2 0  2.5 2 0  3 2 0  3.5 2 0  4 2 0  4.5 2 0  5 2 0  5.5 2 0  6 2 0  6.5 2 0  7 2 0  7.5 2 0  8 2 0  8.5 2 0  9 2 0  9.5 2 0  10 2 0  10.5 2 0  11 2 0  11.5 2 0  12 2 0  12.5 2 0  13 2 0  13.5 2 0  14 2 0  14.5 2 0  15 2 0  15.5 2 0  16 2 0  16.5 2 0  17 2 0  17.5 2 0  18 2 0  18.5 2 0  19 2 0  19.5 2 0  20 2 0  0 2.5 0  0.5 2.5 0  1 2.5 0  1.5 2.5 0  2 2.5 0  2.5 2.5 0  3 2.5 0  3.5 2.5 0  4 2.5 0  4.5 2.5 0  5 2.5 0  5.5 2.5 0  6 2.5 0  6.5 2.5 0  7 2.5 0  7.5 2.5 0  8 2.5 0  8.5 2.5 0  9 2.5 0  9.5 2.5 0  10 2.5 0  10.5 2.5 0  11 2.5 0  11.5 2.5 0  12 2.5 0  12.5 2.5 0  13 2.5 0  13.5 2.5 0  14 2.5 0  14.5 2.5 0  15 2.5 0  15.5 2.5 0  16 2.5 0  16.5 2.5 0  17 2.5 0  17.5 2.5 0  18 2.5 0  18.5 2.5 0  19 2.5 0  19.5 2.5 0  20 2.5 0  0 3 0  0.5 3 0  1 3 0  1.5 3 0  2 3 0  2.5 3 0  3 3 0  3.5 3 0  4 3 0  4.5 3 0  5 3 0  5.5 3 0  6 3 0  6.5 3 0  7 3 0  7.5 3 0  8 3 0  8.5 3 0  9 3 0  9.5 3 0  10 3 0  10.5 3 0  11 3 0  11.5 3 0  12 3 0  12.5 3 0  13 3 0  13.5 3 0  14 3 0  14.5 3 0  15 3 0  15.5 3 0  16 3 0  16.5 3 0  17 3 0  17.5 3 0  18 3 0  18.5 3 0  19 3 0  19.5 3 0  20 3 0  0 3.5 0  0.5 3.5 0  1 3.5 0  1.5 3.5 0  2 3.5 0  2.5 3.5 0  3 3.5 0  3.5 3.5 0  4 3.5 0  4.5 3.5 0  5 3.5 0  5.5 3.5 0  6 3.5 0  6.5 3.5 0  7 3.5 0  7.5 3.5 0  8 3.5 0  8.5 3.5 0  9 3.5 0  9.5 3.5 0  10 3.5 0  10.5 3.5 0  11 3.5 0  11.5 3.5 0  12 3.5 0  12.5 3.5 0  13 3.5 0  13.5 3.5 0  14 3.5 0  14.5 3.5 0  15 3.5 0  15.5 3.5 0  16 3.5 0  16.5 3.5 0  17 3.5 0  17.5 3.5 0  18 3.5 0  18.5 3.5 0  19 3.5 0  19.5 3.5 0  20 3.5 0  0 4 0  0.5 4 0  1 4 0  1.5 4 0  2 4 0  2.5 4 0  3 4 0  3.5 4 0  4 4 0  4.5 4 0  5 4 0  5.5 4 0  6 4 0  6.5 4 0  7 4 0  7.5 4 0  8 4 0  8.5 4 0  9 4 0  9.5 4 0  10 4 0  10.5 4 0  11 4 0  11.5 4 0  12 4 0  12.5 4 0  13 4 0  13.5 4 0  14 4 0  14.5 4 0  15 4 0  15.5 4 0  16 4 0  16.5 4 0  17 4 0  17.5 4 0  18 4 0  18.5 4 0  19 4 0  19.5 4 0  20 4 0  0 4.5 0  0.5 4.5 0  1 4.5 0  1.5 4.5 0  2 4.5 0  2.5 4.5 0  3 4.5 0  3.5 4.5 0  4 4.5 0  4.5 4.5 0  5 4.5 0  5.5 4.5 0  6 4.5 0  6.5 4.5 0  7 4.5 0  7.5 4.5 0  8 4.5 0  8.5 4.5 0  9 4.5 0  9.5 4.5 0  10 4.5 0  10.5 4.5 0  11 4.5 0  11.5 4.5 0  12 4.5 0  12.5 4.5 0  13 4.5 0  13.5 4.5 0  14 4.5 0  14.5 4.5 0  15 4.5 0  15.5 4.5 0  16 4.5 0  16.5 4.5 0  17 4.5 0  17.5 4.5 0  18 4.5 0  18.5 4.5 0  19 4.5 0  19.5 4.5 0  20 4.5 0  0 5 0  0.5 5 0  1 5 0  1.5 5 0  2 5 0  2.5 5 0  3 5 0  3.5 5 0  4 5 0  4.5 5 0  5 5 0  5.5 5 0  6 5 0  6.5 5 0  7 5 0  7.5 5 0  8 5 0  8.5 5 0  9 5 0  9.5 5 0  10 5 0  10.5 5 0  11 5 0  11.5 5 0  12 5 0  12.5 5 0  13 5 0  13.5 5 0  14 5 0  14.5 5 0  15 5 0  15.5 5 0  16 5 0  16.5 5 0  17 5 0  17.5 5 0  18 5 0  18.5 5 0  19 5 0  19.5 5 0  20 5 0  0 5.5 0  0.5 5.5 0  1 5.5 0  1.5 5.5 0  2 5.5 0  2.5 5.5 0  3 5.5 0  3.5 5.5 0  4 5.5 0  4.5 5.5 0  5 5.5 0  5.5 5.5 0  6 5.5 0  6.5 5.5 0  7 5.5 0  7.5 5.5 0  8 5.5 0  8.5 5.5 0  9 5.5 0  9.5 5.5 0  10 5.5 0  10.5 5.5 0  11 5.5 0  11.5 5.5 0  12 5.5 0  12.5 5.5 0  13 5.5 0  13.5 5.5 0  14 5.5 0  14.5 5.5 0  15 5.5 0  15.5 5.5 0  16 5.5 0  16.5 5.5 0  17 5.5 0  17.5 5.5 0  18 5.5 0  18.5 5.5 0  19 5.5 0  19.5 5.5 0  20 5.5 0  0 6 0  0.5 6 0  1 6 0  1.5 6 0  2 6 0  2.5 6 0  3 6 0  3.5 6 0  4 6 0  4.5 6 0  5 6 0  5.5 6 0  6 6 0  6.5 6 0  7 6 0  7.5 6 0  8 6 0  8.5 6 0  9 6 0  9.5 6 0  10 6 0  10.5 6 0  11 6 0  11.5 6 0  12 6 0  12.5 6 0  13 6 0  13.5 6 0  14 6 0  14.5 6 0  15 6 0  15.5 6 0  16 6 0  16.5 6 0  17 6 0  17.5 6 0  18 6 0  18.5 6 0  19 6 0  19.5 6 0  20 6 0  0 6.5 0  0.5 6.5 0  1 6.5 0  1.5 6.5 0  2 6.5 0  2.5 6.5 0  3 6.5 0  3.5 6.5 0  4 6.5 0  4.5 6.5 0  5 6.5 0  5.5 6.5 0  6 6.5 0  6.5 6.5 0  7 6.5 0  7.5 6.5 0  8 6.5 0  8.5 6.5 0  9 6.5 0  9.5 6.5 0  10 6.5 0  10.5 6.5 0  11 6.5 0  11.5 6.5 0  12 6.5 0  12.5 6.5 0  13 6.5 0  13.5 6.5 0  14 6.5 0  14.5 6.5 0  15 6.5 0  15.5 6.5 0  16 6.5 0  16.5 6.5 0  17 6.5 0  17.5 6.5 0  18 6.5 0  18.5 6.5 0  19 6.5 0  19.5 6.5 0  20 6.5 0  0 7 0  0.5 7 0  1 7 0  1.5 7 0  2 7 0  2.5 7 0  3 7 0  3.5 7 0  4 7 0  4.5 7 0  5 7 0  5.5 7 0  6 7 0  6.5 7 0  7 7 0  7.5 7 0  8 7 0  8.5 7 0  9 7 0  9.5 7 0  10 7 0  10.5 7 0  11 7 0  11.5 7 0  12 7 0  12.5 7 0  13 7 0  13.5 7 0  14 7 0  14.5 7 0  15 7 0  15.5 7 0  16 7 0  16.5 7 0  17 7 0  17.5 7 0  18 7 0  18.5 7 0  19 7 0  19.5 7 0  20 7 0  0 7.5 0  0.5 7.5 0  1 7.5 0  1.5 7.5 0  2 7.5 0  2.5 7.5 0  3 7.5 0  3.5 7.5 0  4 7.5 0  4.5 7.5 0  5 7.5 0  5.5 7.5 0  6 7.5 0  6.5 7.5 0  7 7.5 0  7.5 7.5 0  8 7.5 0  8.5 7.5 0  9 7.5 0  9.5 7.5 0  10 7.5 0  10.5 7.5 0  11 7.5 0  11.5 7.5 0  12 7.5 0  12.5 7.5 0  13 7.5 0  13.5 7.5 0  14 7.5 0  14.5 7.5 0  15 7.5 0  15.5 7.5 0  16 7.5 0  16.5 7.5 0  17 7.5 0  17.5 7.5 0  18 7.5 0  18.5 7.5 0  19 7.5 0  19.5 7.5 0  20 7.5 0  0 8 0  0.5 8 0  1 8 0  1.5 8 0  2 8 0  2.5 8 0  3 8 0  3.5 8 0  4 8 0  4.5 8 0  5 8 0  5.5 8 0  6 8 0  6.5 8 0  7 8 0  7.5 8 0  8 8 0  8.5 8 0  9 8 0  9.5 8 0  10 8 0  10.5 8 0  11 8 0  11.5 8 0  12 8 0  12.5 8 0  13 8 0  13.5 8 0  14 8 0  14.5 8 0  15 8 0  15.5 8 0  16 8 0  16.5 8 0  17 8 0  17.5 8 0  18 8 0  18.5 8 0  19 8 0  19.5 8 0  20 8 0  0 8.5 0  0.5 8.5 0  1 8.5 0  1.5 8.5 0  2 8.5 0  2.5 8.5 0  3 8.5 0  3.5 8.5 0  4 8.5 0  4.5 8.5 0  5 8.5 0  5.5 8.5 0  6 8.5 0  6.5 8.5 0  7 8.5 0  7.5 8.5 0  8 8.5 0  8.5 8.5 0  9 8.5 0  9.5 8.5 0  10 8.5 0  10.5 8.5 0  11 8.5 0  11.5 8.5 0  12 8.5 0  12.5 8.5 0  13 8.5 0  13.5 8.5 0  14 8.5 0  14.5 8.5 0  15 8.5 0  15.5 8.5 0  16 8.5 0  16.5 8.5 0  17 8.5 0  17.5 8.5 0  18 8.5 0  18.5 8.5 0  19 8.5 0  19.5 8.5 0  20 8.5 0  0 9 0  0.5 9 0  1 9 0  1.5 9 0  2 9 0  2.5 9 0  3 9 0  3.5 9 0  4 9 0  4.5 9 0  5 9 0  5.5 9 0  6 9 0  6.5 9 0  7 9 0  7.5 9 0  8 9 0  8.5 9 0  9 9 0  9.5 9 0  10 9 0  10.5 9 0  11 9 0  11.5 9 0  12 9 0  12.5 9 0  13 9 0  13.5 9 0  14 9 0  14.5 9 0  15 9 0  15.5 9 0  16 9 0  16.5 9 0  17 9 0  17.5 9 0  18 9 0  18.5 9 0  19 9 0  19.5 9 0  20 9 0  0 9.5 0  0.5 9.5 0  1 9.5 0  1.5 9.5 0  2 9.5 0  2.5 9.5 0  3 9.5 0  3.5 9.5 0  4 9.5 0  4.5 9.5 0  5 9.5 0  5.5 9.5 0  6 9.5 0  6.5 9.5 0  7 9.5 0  7.5 9.5 0  8 9.5 0  8.5 9.5 0  9 9.5 0  9.5 9.5 0  10 9.5 0  10.5 9.5 0  11 9.5 0  11.5 9.5 0  12 9.5 0  12.5 9.5 0  13 9.5 0  13.5 9.5 0  14 9.5 0  14.5 9.5 0  15 9.5 0  15.5 9.5 0  16 9.5 0  16.5 9.5 0  17 9.5 0  17.5 9.5 0  18 9.5 0  18.5 9.5 0  19 9.5 0  19.5 9.5 0  20 9.5 0  0 10 0  0.5 10 0  1 10 0  1.5 10 0  2 10 0  2.5 10 0  3 10 0  3.5 10 0  4 10 0  4.5 10 0  5 10 0  5.5 10 0  6 10 0  6.5 10 0  7 10 0  7.5 10 0  8 10 0  8.5 10 0  9 10 0  9.5 10 0  10 10 0  10.5 10 0  11 10 0  11.5 10 0  12 10 0  12.5 10 0  13 10 0  13.5 10 0  14 10 0  14.5 10 0  15 10 0  15.5 10 0  16 10 0  16.5 10 0  17 10 0  17.5 10 0  18 10 0  18.5 10 0  19 10 0  19.5 10 0  20 10 0  0 10.5 0  0.5 10.5 0  1 10.5 0  1.5 10.5 0  2 10.5 0  2.5 10.5 0  3 10.5 0  3.5 10.5 0  4 10.5 0  4.5 10.5 0  5 10.5 0  5.5 10.5 0  6 10.5 0  6.5 10.5 0  7 10.5 0  7.5 10.5 0  8 10.5 0  8.5 10.5 0  9 10.5 0  9.5 10.5 0  10 10.5 0  10.5 10.5 0  11 10.5 0  11.5 10.5 0  12 10.5 0  12.5 10.5 0  13 10.5 0  13.5 10.5 0  14 10.5 0  14.5 10.5 0  15 10.5 0  15.5 10.5 0  16 10.5 0  16.5 10.5 0  17 10.5 0  17.5 10.5 0  18 10.5 0  18.5 10.5 0  19 10.5 0  19.5 10.5 0  20 10.5 0  0 11 0  0.5 11 0  1 11 0  1.5 11 0  2 11 0  2.5 11 0  3 11 0  3.5 11 0  4 11 0  4.5 11 0  5 11 0  5.5 11 0  6 11 0  6.5 11 0  7 11 0  7.5 11 0  8 11 0  8.5 11 0  9 11 0  9.5 11 0  10 11 0  10.5 11 0  11 11 0  11.5 11 0  12 11 0  12.5 11 0  13 11 0  13.5 11 0  14 11 0  14.5 11 0  15 11 0  15.5 11 0  16 11 0  16.5 11 0  17 11 0  17.5 11 0  18 11 0  18.5 11 0  19 11 0  19.5 11 0  20 11 0  0 11.5 0  0.5 11.5 0  1 11.5 0  1.5 11.5 0  2 11.5 0  2.5 11.5 0  3 11.5 0  3.5 11.5 0  4 11.5 0  4.5 11.5 0  5 11.5 0  5.5 11.5 0  6 11.5 0  6.5 11.5 0  7 11.5 0  7.5 11.5 0  8 11.5 0  8.5 11.5 0  9 11.5 0  9.5 11.5 0  10 11.5 0  10.5 11.5 0  11 11.5 0  11.5 11.5 0  12 11.5 0  12.5 11.5 0  13 11.5 0  13.5 11.5 0  14 11.5 0  14.5 11.5 0  15 11.5 0  15.5 11.5 0  16 11.5 0  16.5 11.5 0  17 11.5 0  17.5 11.5 0  18 11.5 0  18.5 11.5 0  19 11.5 0  19.5 11.5 0  20 11.5 0  0 12 0  0.5 12 0  1 12 0  1.5 12 0  2 12 0  2.5 12 0  3 12 0  3.5 12 0  4 12 0  4.5 12 0  5 12 0  5.5 12 0  6 12 0  6.5 12 0  7 12 0  7.5 12 0  8 12 0  8.5 12 0  9 12 0  9.5 12 0  10 12 0  10.5 12 0  11 12 0  11.5 12 0  12 12 0  12.5 12 0  13 12 0  13.5 12 0  14 12 0  14.5 12 0  
[...]
<PointData  Vectors="f_5623-0"> 
<DataArray  type="Float64"  Name="f_5623-0"  NumberOfComponents="3" format="ascii">0.0000000000000000e+00 0.0000000000000000e+00 0.0000000000000000e+00  -5.9804827753458508e-06 0.0000000000000000e+00 0.0000000000000000e+00  2.5064628997136703e-07 0.0000000000000000e+00 0.0000000000000000e+00  3.6256790517265390e-05 0.0000000000000000e+00 0.0000000000000000e+00  1.1666139575608482e-04 0.0000000000000000e+00 0.0000000000000000e+00  2.5540374893680067e-04 0.0000000000000000e+00 0.0000000000000000e+00  4.6569628683791869e-04 0.0000000000000000e+00 0.0000000000000000e+00  7.5978266768687505e-04 0.0000000000000000e+00 0.0000000000000000e+00  1.1486488108432753e-03 0.0000000000000000e+00 0.0000000000000000e+00  1.6416842362122102e-03 0.0000000000000000e+00 0.0000000000000000e+00  2.2462809180185364e-03 0.0000000000000000e+00 0.0000000000000000e+00  2.9673562705365111e-03 0.0000000000000000e+00 0.0000000000000000e+00  3.8067862311819008e-03 0.0000000000000000e+00 0.0000000000000000e+00  4.7627336618532084e-03 0.0000000000000000e+00 0.0000000000000000e+00  5.8288568283794209e-03 0.0000000000000000e+00 0.0000000000000000e+00  6.9933828550113953e-03 0.0000000000000000e+00 0.0000000000000000e+00  8.2380321198403158e-03 0.0000000000000000e+00 0.0000000000000000e+00  9.5367819578823371e-03 0.0000000000000000e+00 0.0000000000000000e+00  1.0854462247599717e-02 0.0000000000000000e+00 0.0000000000000000e+00  1.2145182019879215e-02 0.0000000000000000e+00 0.0000000000000000e+00  1.3350595728508455e-02 0.0000000000000000e+00 0.0000000000000000e+00  1.4398030815612736e-02 0.0000000000000000e+00 0.0000000000000000e+00  1.5198515119362429e-02 0.0000000000000000e+00 0.0000000000000000e+00  1.5644763636713705e-02 0.0000000000000000e+00 0.0000000000000000e+00  1.5609208793152231e-02 0.0000000000000000e+00 0.0000000000000000e+00  1.4942185530312851e-02 0.0000000000000000e+00 0.0000000000000000e+00  1.3470410002595818e-02 0.0000000000000000e+00 0.0000000000000000e+00  1.0995915027593259e-02 0.0000000000000000e+00 0.0000000000000000e+00  7.2956219506529951e-03 0.0000000000000000e+00 0.0000000000000000e+00  2.1217316029885393e-03 0.0000000000000000e+00 0.0000000000000000e+00  -4.7968992656702274e-03 0.0000000000000000e+00 0.0000000000000000e+00  -1.3752269996644978e-02 0.0000000000000000e+00 0.0000000000000000e+00  -2.5053576541709255e-02 0.0000000000000000e+00 0.0000000000000000e+00  -3.9022409865238271e-02 0.0000000000000000e+00 0.0000000000000000e+00  -5.5986945577774200e-02 0.0000000000000000e+00 0.0000000000000000e+00  -7.6275362108888509e-02 0.0000000000000000e+00 0.0000000000000000e+00  -1.0020880706531293e-01 0.0000000000000000e+00 0.0000000000000000e+00  -1.2809425425926077e-01 0.0000000000000000e+00 0.0000000000000000e+00  -1.6021743483456627e-01 0.0000000000000000e+00 0.0000000000000000e+00  -1.9683510061603429e-01 0.0000000000000000e+00 0.0000000000000000e+00  -2.3816310214767328e-01 0.0000000000000000e+00 0.0000000000000000e+00  0.0000000000000000e+00 -5.9804827737327841e-06 0.0000000000000000e+00  -1.6598567703966128e-05 -1.6598567704116182e-05 0.0000000000000000e+00  -1.7666275655454117e-05 -4.2143211565551380e-05 0.0000000000000000e+00  1.0640467324451922e-05 -8.2829997029350874e-05 0.0000000000000000e+00  8.3097785608694479e-05 -1.3908430039120774e-04 0.0000000000000000e+00  2.1380492233675618e-04 -2.1091174328721304e-04 0.0000000000000000e+00  4.1603937211367634e-04 -2.9808331802674598e-04 0.0000000000000000e+00  7.0207351487588335e-04 -4.0023732610942317e-04 0.0000000000000000e+00  1.0829109580308277e-03 -5.1691300601280964e-04 0.0000000000000000e+00  1.5679568222005723e-03 -6.4755785794068561e-04 0.0000000000000000e+00  2.1646199159627284e-03 -7.9152597646942101e-04 0.0000000000000000e+00  2.8778371152618398e-03 -9.4807324846178892e-04 0.0000000000000000e+00  3.7095071106480254e-03 -1.1163513679486776e-03 0.0000000000000000e+00  4.6578191441858955e-03 -1.2954014040566860e-03 0.0000000000000000e+00  5.7164616377395555e-03 -1.4841472974283802e-03 0.0000000000000000e+00  6.8736956608813800e-03 -1.6813895660672171e-03 0.0000000000000000e+00  8.1112792217713104e-03 -1.8857994957658041e-03 0.0000000000000000e+00  9.4032307526535856e-03 -2.0959141165413594e-03 0.0000000000000000e+00  1.0714424367584987e-02 -2.3101323085160386e-03 0.0000000000000000e+00  1.1999016034965022e-02 -2.5267124309103191e-03 0.0000000000000000e+00  1.3198709312124053e-02 -2.7437719229576499e-03 0.0000000000000000e+00  1.4240882289174375e-02 -2.9592893828411246e-03 0.0000000000000000e+00  1.5036614308432096e-02 -3.1711096849253249e-03 0.0000000000000000e+00  1.5478671993593152e-02 -3.3769527417398639e-03 0.0000000000000000e+00  1.5439538759279881e-02 -3.5744265461748305e-03 0.0000000000000000e+00  1.4769599120487127e-02 -3.7610451308079107e-03 0.0000000000000000e+00  1.3295616583340830e-02 -3.9342520422656416e-03 0.0000000000000000e+00  1.0819668226532943e-02 -4.0914498327070123e-03 0.0000000000000000e+00  7.1187155694449307e-03 -4.2300359021500041e-03 0.0000000000000000e+00  1.9449943146406697e-03 -4.3474447665662989e-03 0.0000000000000000e+00  -4.9726107705571464e-03 -4.4411964654494209e-03 0.0000000000000000e+00  -1.3926079903192581e-02 -4.5089503568067268e-03 0.0000000000000000e+00  -2.5224601587800710e-02 -4.5485630028250582e-03 0.0000000000000000e+00  -3.9189775123502239e-02 -4.5581482988984560e-03 0.0000000000000000e+00  -5.6149807213486093e-02 -4.5361375780816312e-03 0.0000000000000000e+00  -7.6432944543175937e-02 -4.4813372177163781e-03 0.0000000000000000e+00  -1.0036047678925858e-01 -4.3929805265030906e-03 0.0000000000000000e+00  -1.2823970852317196e-01 -4.2707639734307938e-03 0.0000000000000000e+00  -1.6035734139500155e-01 -4.1148194139116615e-03 0.0000000000000000e+00  -1.9697390095839371e-01 -3.9254019602475874e-03 0.0000000000000000e+00  -2.3832143667213390e-01 -3.7015205086753313e-03 0.0000000000000000e+00  0.0000000000000000e+00 2.5064629127655803e-07 0.0000000000000000e+00  -4.2143211566526281e-05 -1.7666275656333690e-05 0.0000000000000000e+00  -6.7635934172446578e-05 -6.7635934172226078e-05 0.0000000000000000e+00  -6.3425329389295472e-05 -1.4913910760432626e-04 0.0000000000000000e+00  -1.5054230842973197e-05 -2.6203369522304282e-04 0.0000000000000000e+00  9.1522406329231962e-05 -4.0602381266627866e-04 0.0000000000000000e+00  2.6960674991455751e-04 -5.8061554992804194e-04 0.0000000000000000e+00  5.3150961161366878e-04 -7.8511367669009419e-04 0.0000000000000000e+00  8.8827538892962169e-04 -1.0186290630960946e-03 0.0000000000000000e+00  1.3493533776629703e-03 -1.2800823171146229e-03 0.0000000000000000e+00  1.9222026324075487e-03 -1.5682011633241285e-03 0.0000000000000000e+00  2.6118185864290838e-03 -1.8815130737290296e-03 0.0000000000000000e+00  3.4201683947711610e-03 -2.2183349739273318e-03 0.0000000000000000e+00  4.3455207434627656e-03 -2.5767613744537140e-03 0.0000000000000000e+00  5.3816551389426993e-03 -2.9546518732675706e-03 0.0000000000000000e+00  6.5169356845984124e-03 -3.3496187584428779e-03 0.0000000000000000e+00  7.7332353441927262e-03 -3.7590153616835075e-03 0.0000000000000000e+00  9.0046990529487302e-03 -4.1799258176525196e-03 0.0000000000000000e+00  1.0296338226882645e-02 -4.6091569383513728e-03 0.0000000000000000e+00  1.1562455776703612e-02 -5.0432329953454215e-03 0.0000000000000000e+00  1.2744910232292708e-02 -5.4783943058877120e-03 0.0000000000000000e+00  1.3771240582551754e-02 -5.9106006331329100e-03 0.0000000000000000e+00  1.4552690355598814e-02 -6.3355405269585972e-03 0.0000000000000000e+00  1.4982190436620281e-02 -6.7486478395992954e-03 0.0000000000000000e+00  1.4932384764702865e-02 -7.1451267324505203e-03 0.0000000000000000e+00  1.4253810211466190e-02 -7.5199865245868065e-03 0.0000000000000000e+00  1.2773369424763847e-02 -7.8680876907622956e-03 0.0000000000000000e+00  1.0293259776035445e-02 -8.1842001588577906e-03 0.0000000000000000e+00  6.5905380727626726e-03 -8.4630747437291019e-03 0.0000000000000000e+00  1.4175037313839715e-03 -8.6995280431139011e-03 0.0000000000000000e+00  -5.4969331822032775e-03 -8.8885403816402250e-03 0.0000000000000000e+00  -1.4444772976713809e-02 -9.0253654112991029e-03 0.0000000000000000e+00  -2.5735276722421617e-02 -9.1056487918491288e-03 0.0000000000000000e+00  -3.9690176280177000e-02 -9.1255520412822731e-03 0.0000000000000000e+00  -5.6637880048686050e-02 -9.0818761784358035e-03 0.0000000000000000e+00  -7.6906919248443117e-02 -8.9721778912235581e-03 0.0000000000000000e+00  -1.0081897532780770e-01 -8.7948675754575475e-03 0.0000000000000000e+00  -1.2868189646210679e-01 -8.5492719559057389e-03 0.0000000000000000e+00  -1.6078314019887041e-01 -8.2356389730034278e-03 0.0000000000000000e+00  -1.9738406690261742e-01 -7.8551202703940545e-03 0.0000000000000000e+00  -2.3871523612234449e-01 -7.4102879929222893e-03 0.0000000000000000e+00  0.0000000000000000e+00 3.6256790520055096e-05 0.0000000000000000e+00  -8.2829997028281580e-05 1.0640467323190519e-05 0.0000000000000000e+00  -1.4913910760664531e-04 -6.3425329390111686e-05 0.0000000000000000e+00  -1.8535827911162704e-04 -1.8535827911149281e-04 0.0000000000000000e+00  -1.7729264968513320e-04 -3.5468808295495029e-04 0.0000000000000000e+00  -1.1097533513060359e-04 -5.7081297974369012e-04 0.0000000000000000e+00  2.6884736773967169e-05 -8.3290429374584469e-04 0.0000000000000000e+00  2.4862166774197470e-04 -1.1398863738374997e-03 0.0000000000000000e+00  5.6532471533510243e-04 -1.4904254805646862e-03 0.0000000000000000e+00  9.8650487508365444e-04 -1.8829182318824687e-03 0.0000000000000000e+00  1.5196988874654897e-03 -2.3154783836404421e-03 0.0000000000000000e+00  2.1699965758151881e-03 -2.7859216011490179e-03 0.0000000000000000e+00  2.9394773683388323e-03 -3.2917483810151315e-03 0.0000000000000000e+00  3.8265412452126312e-03 -3.8301256373415443e-03 0.0000000000000000e+00  4.8251188958701435e-03 -4.3978676505639852e-03 0.0000000000000000e+00  5.9237459759429656e-03 -4.9914171685614102e-03 0.0000000000000000e+00  7.1044873845415553e-03 -5.6068275186145090e-03 0.0000000000000000e+00  8.3416998507842271e-03 -6.2397466702006086e-03 0.0000000000000000e+00  9.6006253038716655e-03 -6.8854042968648013e-03 0.0000000000000000e+00  1.0835814048545531e-02 -7.5386030206048430e-03 0.0000000000000000e+00  1.1989386260047344e-02 -8.1937151831037273e-03 0.0000000000000000e+00  1.2989153306155708e-02 -8.8446866671708958e-03 0.0000000000000000e+00  1.3746637323327964e-02 -9.4850494798417936e-03 0.0000000000000000e+00  1.4155048452708846e-02 -1.0107944989933096e-02 0.0000000000000000e+00  1.4087303802044303e-02 -1.0706159863704793e-02 0.0000000000000000e+00  1.3394199392295242e-02 -1.1272176827811472e-02 0.0000000000000000e+00  1.1902873879342772e-02 -1.1798242362390262e-02 0.0000000000000000e+00  9.4157272716600768e-03 -1.2276453228415021e-02 0.0000000000000000e+00  5.7099744898898045e-03 -1.2698863293724933e-02 0.0000000000000000e+00  5.3801677203430941e-04 -1.3057611370316654e-02 0.0000000000000000e+00  -6.3712022288835435e-03 -1.3345069655408489e-02 0.0000000000000000e+00  -1.5309729036123243e-02 -1.3554010855209330e-02 0.0000000000000000e+00  -2.6586961319418279e-02 -1.3677790192748446e-02 0.0000000000000000e+00  -4.0524866920857404e-02 -1.3710536345310120e-02 0.0000000000000000e+00  -5.7452196382580110e-02 -1.3647343059045487e-02 0.0000000000000000e+00  -7.7697932701007194e-02 -1.3484450987261991e-02 0.0000000000000000e+00  -1.0158431582505033e-01 -1.3219408056434940e-02 0.0000000000000000e+00  -1.2941984119378214e-01 -1.2851200162573202e-02 0.0000000000000000e+00  -1.6149264865863311e-01 -1.2380365799469894e-02 0.0000000000000000e+00  -1.9806469105815619e-01 -1.1809184190452448e-02 0.0000000000000000e+00  -2.3936700154231505e-01 -1.1142201301406340e-02 0.0000000000000000e+00  0.0000000000000000e+00 1.1666139575852242e-04 0.0000000000000000e+00  -1.3908430039116879e-04 8.3097785607501139e-05 0.0000000000000000e+00  -2.6203369522515956e-04 -1.5054230843244456e-05 0.0000000000000000e+00  -3.5468808295862578e-04 -1.7729264968604596e-04 0.0000000000000000e+00  -4.0293689372143557e-04 -4.0293689371890667e-04 0.0000000000000000e+00  -3.9287033611071968e-04 -6.9112119608922380e-04 0.0000000000000000e+00  -3.1120307747783092e-04 -1.0407057642535232e-03 0.0000000000000000e+00  -1.4557372893404843e-04 -1.4502442841569188e-03 0.0000000000000000e+00  1.1515996281894053e-04 -1.9179637013155692e-03 0.0000000000000000e+00  4.8058601184673461e-04 -2.4417446989011735e-03 0.0000000000000000e+00  9.5834242172083354e-04 -3.0191003080268044e-03 0.0000000000000000e+00  1.5536455079562049e-03 -3.6471524821993801e-03 0.0000000000000000e+00  2.2687276838447845e-03 -4.3226070029778610e-03 0.0000000000000000e+00  3.1021696486808054e-03 -5.0417272521622852e-03 0.0000000000000000e+00  4.0481115442647653e-03 -5.8003075250652788e-03 0.0000000000000000e+00  5.0953277981490358e-03 -6.5936467082251806e-03 0.0000000000000000e+00  6.2261514292223678e-03 -7.4165233028943801e-03 0.0000000000000000e+00  7.4152359698283852e-03 -8.2631729437317725e-03 0.0000000000000000e+00  8.6281473435332757e-03 -9.1272697489857939e-03 0.0000000000000000e+00  9.8197845788909593e-03 -1.0001913047770981e-02 0.0000000000000000e+00  1.0932637723243223e-02 -1.0879621266019527e-02 0.0000000000000000e+00  1.1894904306858183e-02 -1.1752335011064203e-02 0.0000000000000000e+00  1.2618502625402215e-02 -1.2611431667858762e-02 0.0000000000000000e+00  1.2997041095716545e-02 -1.3447754088275128e-02 0.0000000000000000e+00  1.2903827624965171e-02 -1.4251656188861303e-02 0.0000000000000000e+00  1.2190030174662836e-02 -1.5013068425604282e-02 0.0000000000000000e+00  1.0683127314213869e-02 -1.5721586121502804e-02 0.0000000000000000e+00  8.1858121113568914e-03 -1.6366583401493048e-02 0.0000000000000000e+00  4.4755294996819475e-03 -1.6937354940342743e-02 0.0000000000000000e+00  -6.9516936935144541e-04 -1.7423286751764876e-02 0.0000000000000000e+00  -7.5972882022820260e-03 -1.7814055755785603e-02 0.0000000000000000e+00  -1.6522934470033716e-02 -1.8099855818347357e-02 0.0000000000000000e+00  -2.7781694641933478e-02 -1.8271645408763675e-02 0.0000000000000000e+00  -4.1695864040462001e-02 -1.8321409142382235e-02 0.0000000000000000e+00  -5.8594665152234826e-02 -1.8242422641776636e-02 0.0000000000000000e+00  -7.8807696168486444e-02 -1.8029508096097397e-02 0.0000000000000000e+00  -1.0265794512052864e-01 -1.7679268116490489e-02 0.0000000000000000e+00  -1.3045476844019857e-01 -1.7190290781703088e-02 0.0000000000000000e+00  -1.6248725885086027e-01 -1.6563332203407236e-02 0.0000000000000000e+00  -1.9901842862467428e-01 -1.5801496791623772e-02 0.0000000000000000e+00  -2.4028065608706789e-01 -1.4910382197941290e-02 0.0000000000000000e+00  0.0000000000000000e+00 2.5540374893819653e-04 0.0000000000000000e+00  -2.1091174328806349e-04 2.1380492233759381e-04 0.0000000000000000e+00  -4.0602381266857890e-04 9.1522406330532056e-05 0.0000000000000000e+00  -5.7081297974553348e-04 -1.1097533513035496e-04 0.0000000000000000e+00  -6.9112119609131251e-04 -3.9287033610884570e-04 0.0000000000000000e+00  -7.5306733770120809e-04 -7.5306733769876907e-04 0.0000000000000000e+00  -7.4336382467733296e-04 -1.1901407765255838e-03 0.0000000000000000e+00  -6.4961482630341389e-04 -1.7022967927968495e-03 0.0000000000000000e+00  -4.6061424796393241e-04 -2.2873456428341111e-03 0.0000000000000000e+00  -1.6668095563882759e-04 -2.9426751554632083e-03 0.0000000000000000e+00  2.3994688725432117e-04 -3.6652222545219553e-03 0.0000000000000000e+00  7.6464211200912024e-04 -4.4514420657528180e-03 0.0000000000000000e+00  1.4098283347814817e-03 -5.2972749512402119e-03 0.0000000000000000e+00  2.1743139308881714e-03 -6.1981121245771337e-03 0.0000000000000000e+00  3.0525045872489658e-03 -7.1487606740420588e-03 0.0000000000000000e+00  4.0334789980579454e-03 -8.1434089806969069e-03 0.0000000000000000e+00  5.0999133238011285e-03 -9.1755936992269395e-03 0.0000000000000000e+00  6.2268424025667792e-03 -1.0238169679852506e-02 0.0000000000000000e+00  7.3802498743110404e-03 -1.1323284453461860e-02 0.0000000000000000e+00  8.5154859046876318e-03 -1.2422359180735256e-02 0.0000000000000000e+00  9.5755206633718459e-03 -1.3526078280422621e-02 0.0000000000000000e+00  1.0489054685775262e-02 -1.4624390298585803e-02 0.0000000000000000e+00  1.1168524160032750e-02 -1.5706522949382903e-02 0.0000000000000000e+00  1.1508060176939939e-02 -1.6761015626947349e-02 0.0000000000000000e+00  1.1381485697256217e-02 -1.7775773020460121e-02 0.0000000000000000e+00  1.0640461297064826e-02 -1.8738143702401212e-02 0.0000000000000000e+00  9.1129184750582196e-03 -1.9635027621353360e-02 0.0000000000000000e+00  6.6019440262604966e-03 -2.0453016208177820e-02 0.0000000000000000e+00  2.8852960104510947e-03 -2.1178568170239609e-02 0.0000000000000000e+00  -2.2842644957335244e-03 -2.1798222868198686e-02 0.0000000000000000e+00  -9.1776572586942488e-03 -2.2298851330072436e-02 0.0000000000000000e+00  -1.8087053404698322e-02 -2.2667942404590184e-02 0.0000000000000000e+00  -2.9322269441188285e-02 -2.2893918354463402e-02 0.0000000000000000e+00  -4.3206011246427187e-02 -2.2966470586476884e-02 0.0000000000000000e+00  -6.0068100052115263e-02 -2.2876902706953112e-02 0.0000000000000000e+00  -8.0238920791936605e-02 -2.2618465470666409e-02 0.0000000000000000e+00  -1.0404242807733696e-01 -2.2186667431496165e-02 0.0000000000000000e+00  -1.3178911149827230e-01 -2.1579546578683842e-02 0.0000000000000000e+00  -1.6376935193829850e-01 -2.0797888881908762e-02 0.0000000000000000e+00  -2.0024759691709262e-01 -1.9845365832476758e-02 0.0000000000000000e+00  -2.4145775503138042e-01 -1.8728500316600328e-02 0.0000000000000000e+00  0.0000000000000000e+00 4.6569628683696887e-04 0.0000000000000000e+00  -2.9808331802616512e-04 4.1603937211756017e-04 0.0000000000000000e+00  -5.8061554992713512e-04 2.6960674991638391e-04 0.0000000000000000e+00  -8.3290429374623283e-04 2.6884736773642400e-05 0.0000000000000000e+00  -1.0407057642556831e-03 -3.1120307747511478e-04 0.0000000000000000e+00  -1.1901407765251598e-03 -7.4336382467676820e-04 0.0000000000000000e+00  -1.2679124431161292e-03 -1.2679124431178054e-03 0.0000000000000000e+00  -1.2615855207676813e-03 -1.8827343734126923e-03 0.0000000000000000e+00  -1.1598816843045984e-03 -2.5852522391458196e-03 0.0000000000000000e+00  -9.5301294257975301e-04 -3.3723925678722060e-03 0.0000000000000000e+00  -6.3307346905152142e-04 -4.2405502048711973e-03 0.0000000000000000e+00  -1.9450646818258599e-04 -5.1855498626097278e-03 0.0000000000000000e+00  3.6533840682259210e-04 -6.2026051017548718e-03 0.0000000000000000e+00  1.0455415093359515e-03 -7.2862754396096482e-03 0.0000000000000000e+00  1.8408277285638618e-03 -8.4304225248633385e-03 0.0000000000000000e+00  2.7406434859823586e-03 -9.6281665253756168e-03 0.0000000000000000e+00  3.7280816422813022e-03 -1.0871844096387003e-02 0.0000000000000000e+00  4.7786421096358001e-03 -1.2152969550378159e-02 0.0000000000000000e+00  5.8588201123923158e-03 -1.3462201146234611e-02 0.0000000000000000e+00  6.9245205395792511e-03 -1.4789314759436555e-02 0.0000000000000000e+00  7.9193062759287357e-03 -1.6123187588391867e-02 0.0000000000000000e+00  8.7725013515662937e-03 -1.7451794991368952e-02 0.0000000000000000e+00  9.3971866525332064e-03 -1.8762224021783392e-02 0.0000000000000000e+00  9.6881469372308154e-03 -2.0040707711799128e-02 0.0000000000000000e+00  9.5198526562786760e-03 -2.1272684601900793e-02 0.0000000000000000e+00  8.7445874576543865e-03 -2.2442888357252829e-02 0.0000000000000000e+00  7.1908601186435207e-03 -2.3535472451623012e-02 0.0000000000000000e+00  4.6622645763267703e-03 -2.4534174704413440e-02 0.0000000000000000e+00  9.3696904494146142e-04 -2.5422525767739557e-02 0.0000000000000000e+00  -4.2319807583887838e-03 -2.6184104309722754e-02 0.0000000000000000e+00  -1.1115374414686090e-02 -2.6802839478909195e-02 0.0000000000000000e+00  -2.0005434986344748e-02 -2.7263358186425002e-02 0.0000000000000000e+00  -3.1212237397361134e-02 -2.7551370864905170e-02 0.0000000000000000e+00  -4.50589712972897