<?xml version="1.0"?>
<VTKFile type="UnstructuredGrid"  version="0.1"  >
<UnstructuredGrid>
<Piece  NumberOfPoints="1681" NumberOfCells="3200">
<Points>
<DataArray  type="Float64"  NumberOfComponents="3"  format="ascii">0 0 0  0.5 0 0  1 0 0  1.5 0 0  2 0 0  2.5 0 0  3 0 0  3.5 0 0  4 0 0  4.5 0 0  5 0 0  5.5 0 0  6 0 0  6.5 0 0  7 0 0  7.5 0 0  8 0 0  8.5 0 0  9 0 0  9.5 0 0  10 0 0  10.5 0 0  11 0 0  11.5 0 0  12 0 0  12.5 0 0  13 0 0  13.5 0 0  14 0 0  14.5 0 0  15 0 0  15.5 0 0  16 0 0  16.5 0 0  17 0 0  17.5 0 0  18 0 0  18.5 0 0  19 0 0  19.5 0 0  20 0 0  0 0.5 0  0.5 0.5 0  1 0.5 0  1.5 0.5 0  2 0.5 0  2.5 0.5 0  3 0.5 0  3.5 0.5 0  4 0.5 0  4.5 0.5 0  5 0.5 0  5.5 0.5 0  6 0.5 0  6.5 0.5 0  7 0.5 0  7.5 0.5 0  8 0.5 0  8.5 0.5 0  9 0.5 0  9.5 0.5 0  10 0.5 0  10.5 0.5 0  11 0.5 0  11.5 0.5 0  12 0.5 0  12.5 0.5 0  13 0.5 0  13.5 0.5 0  14 0.5 0  14.5 0.5 0  15 0.5 0  15.5 0.5 0  16 0.5 0  16.5 0.5 0  17 0.5 0  17.5 0.5 0  18 0.5 0  18.5 0.5 0  19 0.5 0  19.5 0.5 0  20 0.5 0  0 1 0  0.5 1 0  1 1 0  1.5 1 0  2 1 0  2.5 1 0  3 1 0  3.5 1 0  4 1 0  4.5 1 0  5 1 0  5.5 1 0  6 1 0  6.5 1 0  7 1 0  7.5 1 0  8 1 0  8.5 1 0  9 1 0  9.5 1 0  10 1 0  10.5 1 0  11 1 0  11.5 1 0  12 1 0  12.5 1 0  13 1 0  13.5 1 0  14 1 0  14.5 1 0  15 1 0  15.5 1 0  16 1 0  16.5 1 0  17 1 0  17.5 1 0  18 1 0  18.5 1 0  19 1 0  19.5 1 0  20 1 0  0 1.5 0  0.5 1.5 0  1 1.5 0  1.5 1.5 0  2 1.5 0  2.5 1.5 0  3 1.5 0  3.5 1.5 0  4 1.5 0  4.5 1.5 0  5 1.5 0  5.5 1.5 0  6 1.5 0  6.5 1.5 0  7 1.5 0  7.5 1.5 0  8 1.5 0  8.5 1.5 0  9 1.5 0  9.5 1.5 0  10 1.5 0  10.5 1.5 0  11 1.5 0  11.5 1.5 0  12 1.5 0  12.5 1.5 0  13 1.5 0  13.5 1.5 0  14 1.5 0  14.5 1.5 0  15 1.5 0  15.5 1.5 0  16 1.5 0  16.5 1.5 0  17 1.5 0  17.5 1.5 0  18 1.5 0  18.5 1.5 0  19 1.5 0  19.5 1.5 0  20 1.5 0  0 2 0  0.5 2 0  1 2 0  1.5 2 0  2 2 0  2.5 2 0  3 2 0  3.5 2 0  4 2 0  4.5 2 0  5 2 0  5.5 2 0  6 2 0  6.5 2 0  7 2 0  7.5 2 0  8 2 0  8.5 2 0  9 2 0  9.5 2 0  10 2 0  10.5 2 0  11 2 0  11.5 2 0  12 2 0  12.5 2 0  13 2 0  13.5 2 0  14 2 0  14.5 2 0  15 2 0  15.5 2 0  16 2 0  16.5 2 0  17 2 0  17.5 2 0  18 2 0  18.5 2 0  19 2 0  19.5 2 0  20 2 0  0 2.5 0  0.5 2.5 0  1 2.5 0  1.5 2.5 0  2 2.5 0  2.5 2.5 0  3 2.5 0  3.5 2.5 0  4 2.5 0  4.5 2.5 0  5 2.5 0  5.5 2.5 0  6 2.5 0  6.5 2.5 0  7 2.5 0  7.5 2.5 0  8 2.5 0  8.5 2.5 0  9 2.5 0  9.5 2.5 0  10 2.5 0  10.5 2.5 0  11 2.5 0  11.5 2.5 0  12 2.5 0  12.5 2.5 0  13 2.5 0  13.5 2.5 0  14 2.5 0  14.5 2.5 0  15 2.5 0  15.5 2.5 0  16 2.5 0  16.5 2.5 0  17 2.5 0  17.5 2.5 0  18 2.5 0  18.5 2.5 0  19 2.5 0  19.5 2.5 0  20 2.5 0  0 3 0  0.5 3 0  1 3 0  1.5 3 0  2 3 0  2.5 3 0  3 3 0  3.5 3 0  4 3 0  4.5 3 0  5 3 0  5.5 3 0  6 3 0  6.5 3 0  7 3 0  7.5 3 0  8 3 0  8.5 3 0  9 3 0  9.5 3 0  10 3 0  10.5 3 0  11 3 0  11.5 3 0  12 3 0  12.5 3 0  13 3 0  13.5 3 0  14 3 0  14.5 3 0  15 3 0  15.5 3 0  16 3 0  16.5 3 0  17 3 0  17.5 3 0  18 3 0  18.5 3 0  19 3 0  19.5 3 0  20 3 0  0 3.5 0  0.5 3.5 0  1 3.5 0  1.5 3.5 0  2 3.5 0  2.5 3.5 0  3 3.5 0  3.5 3.5 0  4 3.5 0  4.5 3.5 0  5 3.5 0  5.5 3.5 0  6 3.5 0  6.5 3.5 0  7 3.5 0  7.5 3.5 0  8 3.5 0  8.5 3.5 0  9 3.5 0  9.5 3.5 0  10 3.5 0  10.5 3.5 0  11 3.5 0  11.5 3.5 0  12 3.5 0  12.5 3.5 0  13 3.5 0  13.5 3.5 0  14 3.5 0  14.5 3.5 0  15 3.5 0  15.5 3.5 0  16 3.5 0  16.5 3.5 0  17 3.5 0  17.5 3.5 0  18 3.5 0  18.5 3.5 0  19 3.5 0  19.5 3.5 0  20 3.5 0  0 4 0  0.5 4 0  1 4 0  1.5 4 0  2 4 0  2.5 4 0  3 4 0  3.5 4 0  4 4 0  4.5 4 0  5 4 0  5.5 4 0  6 4 0  6.5 4 0  7 4 0  7.5 4 0  8 4 0  8.5 4 0  9 4 0  9.5 4 0  10 4 0  10.5 4 0  11 4 0  11.5 4 0  12 4 0  12.5 4 0  13 4 0  13.5 4 0  14 4 0  14.5 4 0  15 4 0  15.5 4 0  16 4 0  16.5 4 0  17 4 0  17.5 4 0  18 4 0  18.5 4 0  19 4 0  19.5 4 0  20 4 0  0 4.5 0  0.5 4.5 0  1 4.5 0  1.5 4.5 0  2 4.5 0  2.5 4.5 0  3 4.5 0  3.5 4.5 0  4 4.5 0  4.5 4.5 0  5 4.5 0  5.5 4.5 0  6 4.5 0  6.5 4.5 0  7 4.5 0  7.5 4.5 0  8 4.5 0  8.5 4.5 0  9 4.5 0  9.5 4.5 0  10 4.5 0  10.5 4.5 0  11 4.5 0  11.5 4.5 0  12 4.5 0  12.5 4.5 0  13 4.5 0  13.5 4.5 0  14 4.5 0  14.5 4.5 0  15 4.5 0  15.5 4.5 0  16 4.5 0  16.5 4.5 0  17 4.5 0  17.5 4.5 0  18 4.5 0  18.5 4.5 0  19 4.5 0  19.5 4.5 0  20 4.5 0  0 5 0  0.5 5 0  1 5 0  1.5 5 0  2 5 0  2.5 5 0  3 5 0  3.5 5 0  4 5 0  4.5 5 0  5 5 0  5.5 5 0  6 5 0  6.5 5 0  7 5 0  7.5 5 0  8 5 0  8.5 5 0  9 5 0  9.5 5 0  10 5 0  10.5 5 0  11 5 0  11.5 5 0  12 5 0  12.5 5 0  13 5 0  13.5 5 0  14 5 0  14.5 5 0  15 5 0  15.5 5 0  16 5 0  16.5 5 0  17 5 0  17.5 5 0  18 5 0  18.5 5 0  19 5 0  19.5 5 0  20 5 0  0 5.5 0  0.5 5.5 0  1 5.5 0  1.5 5.5 0  2 5.5 0  2.5 5.5 0  3 5.5 0  3.5 5.5 0  4 5.5 0  4.5 5.5 0  5 5.5 0  5.5 5.5 0  6 5.5 0  6.5 5.5 0  7 5.5 0  7.5 5.5 0  8 5.5 0  8.5 5.5 0  9 5.5 0  9.5 5.5 0  10 5.5 0  10.5 5.5 0  11 5.5 0  11.5 5.5 0  12 5.5 0  12.5 5.5 0  13 5.5 0  13.5 5.5 0  14 5.5 0  14.5 5.5 0  15 5.5 0  15.5 5.5 0  16 5.5 0  16.5 5.5 0  17 5.5 0  17.5 5.5 0  18 5.5 0  18.5 5.5 0  19 5.5 0  19.5 5.5 0  20 5.5 0  0 6 0  0.5 6 0  1 6 0  1.5 6 0  2 6 0  2.5 6 0  3 6 0  3.5 6 0  4 6 0  4.5 6 0  5 6 0  5.5 6 0  6 6 0  6.5 6 0  7 6 0  7.5 6 0  8 6 0  8.5 6 0  9 6 0  9.5 6 0  10 6 0  10.5 6 0  11 6 0  11.5 6 0  12 6 0  12.5 6 0  13 6 0  13.5 6 0  14 6 0  14.5 6 0  15 6 0  15.5 6 0  16 6 0  16.5 6 0  17 6 0  17.5 6 0  18 6 0  18.5 6 0  19 6 0  19.5 6 0  20 6 0  0 6.5 0  0.5 6.5 0  1 6.5 0  1.5 6.5 0  2 6.5 0  2.5 6.5 0  3 6.5 0  3.5 6.5 0  4 6.5 0  4.5 6.5 0  5 6.5 0  5.5 6.5 0  6 6.5 0  6.5 6.5 0  7 6.5 0  7.5 6.5 0  8 6.5 0  8.5 6.5 0  9 6.5 0  9.5 6.5 0  10 6.5 0  10.5 6.5 0  11 6.5 0  11.5 6.5 0  12 6.5 0  12.5 6.5 0  13 6.5 0  13.5 6.5 0  14 6.5 0  14.5 6.5 0  15 6.5 0  15.5 6.5 0  16 6.5 0  16.5 6.5 0  17 6.5 0  17.5 6.5 0  18 6.5 0  18.5 6.5 0  19 6.5 0  19.5 6.5 0  20 6.5 0  0 7 0  0.5 7 0  1 7 0  1.5 7 0  2 7 0  2.5 7 0  3 7 0  3.5 7 0  4 7 0  4.5 7 0  5 7 0  5.5 7 0  6 7 0  6.5 7 0  7 7 0  7.5 7 0  8 7 0  8.5 7 0  9 7 0  9.5 7 0  10 7 0  10.5 7 0  11 7 0  11.5 7 0  12 7 0  12.5 7 0  13 7 0  13.5 7 0  14 7 0  14.5 7 0  15 7 0  15.5 7 0  16 7 0  16.5 7 0  17 7 0  17.5 7 0  18 7 0  18.5 7 0  19 7 0  19.5 7 0  20 7 0  0 7.5 0  0.5 7.5 0  1 7.5 0  1.5 7.5 0  2 7.5 0  2.5 7.5 0  3 7.5 0  3.5 7.5 0  4 7.5 0  4.5 7.5 0  5 7.5 0  5.5 7.5 0  6 7.5 0  6.5 7.5 0  7 7.5 0  7.5 7.5 0  8 7.5 0  8.5 7.5 0  9 7.5 0  9.5 7.5 0  10 7.5 0  10.5 7.5 0  11 7.5 0  11.5 7.5 0  12 7.5 0  12.5 7.5 0  13 7.5 0  13.5 7.5 0  14 7.5 0  14.5 7.5 0  15 7.5 0  15.5 7.5 0  16 7.5 0  16.5 7.5 0  17 7.5 0  17.5 7.5 0  18 7.5 0  18.5 7.5 0  19 7.5 0  19.5 7.5 0  20 7.5 0  0 8 0  0.5 8 0  1 8 0  1.5 8 0  2 8 0  2.5 8 0  3 8 0  3.5 8 0  4 8 0  4.5 8 0  5 8 0  5.5 8 0  6 8 0  6.5 8 0  7 8 0  7.5 8 0  8 8 0  8.5 8 0  9 8 0  9.5 8 0  10 8 0  10.5 8 0  11 8 0  11.5 8 0  12 8 0  12.5 8 0  13 8 0  13.5 8 0  14 8 0  14.5 8 0  15 8 0  15.5 8 0  16 8 0  16.5 8 0  17 8 0  17.5 8 0  18 8 0  18.5 8 0  19 8 0  19.5 8 0  20 8 0  0 8.5 0  0.5 8.5 0  1 8.5 0  1.5 8.5 0  2 8.5 0  2.5 8.5 0  3 8.5 0  3.5 8.5 0  4 8.5 0  4.5 8.5 0  5 8.5 0  5.5 8.5 0  6 8.5 0  6.5 8.5 0  7 8.5 0  7.5 8.5 0  8 8.5 0  8.5 8.5 0  9 8.5 0  9.5 8.5 0  10 8.5 0  10.5 8.5 0  11 8.5 0  11.5 8.5 0  12 8.5 0  12.5 8.5 0  13 8.5 0  13.5 8.5 0  14 8.5 0  14.5 8.5 0  15 8.5 0  15.5 8.5 0  16 8.5 0  16.5 8.5 0  17 8.5 0  17.5 8.5 0  18 8.5 0  18.5 8.5 0  19 8.5 0  19.5 8.5 0  20 8.5 0  0 9 0  0.5 9 0  1 9 0  1.5 9 0  2 9 0  2.5 9 0  3 9 0  3.5 9 0  4 9 0  4.5 9 0  5 9 0  5.5 9 0  6 9 0  6.5 9 0  7 9 0  7.5 9 0  8 9 0  8.5 9 0  9 9 0  9.5 9 0  10 9 0  10.5 9 0  11 9 0  11.5 9 0  12 9 0  12.5 9 0  13 9 0  13.5 9 0  14 9 0  14.5 9 0  15 9 0  15.5 9 0  16 9 0  16.5 9 0  17 9 0  17.5 9 0  18 9 0  18.5 9 0  19 9 0  19.5 9 0  20 9 0  0 9.5 0  0.5 9.5 0  1 9.5 0  1.5 9.5 0  2 9.5 0  2.5 9.5 0  3 9.5 0  3.5 9.5 0  4 9.5 0  4.5 9.5 0  5 9.5 0  5.5 9.5 0  6 9.5 0  6.5 9.5 0  7 9.5 0  7.5 9.5 0  8 9.5 0  8.5 9.5 0  9 9.5 0  9.5 9.5 0  10 9.5 0  10.5 9.5 0  11 9.5 0  11.5 9.5 0  12 9.5 0  12.5 9.5 0  13 9.5 0  13.5 9.5 0  14 9.5 0  14.5 9.5 0  15 9.5 0  15.5 9.5 0  16 9.5 0  16.5 9.5 0  17 9.5 0  17.5 9.5 0  18 9.5 0  18.5 9.5 0  19 9.5 0  19.5 9.5 0  20 9.5 0  0 10 0  0.5 10 0  1 10 0  1.5 10 0  2 10 0  2.5 10 0  3 10 0  3.5 10 0  4 10 0  4.5 10 0  5 10 0  5.5 10 0  6 10 0  6.5 10 0  7 10 0  7.5 10 0  8 10 0  8.5 10 0  9 10 0  9.5 10 0  10 10 0  10.5 10 0  11 10 0  11.5 10 0  12 10 0  12.5 10 0  13 10 0  13.5 10 0  14 10 0  14.5 10 0  15 10 0  15.5 10 0  16 10 0  16.5 10 0  17 10 0  17.5 10 0  18 10 0  18.5 10 0  19 10 0  19.5 10 0  20 10 0  0 10.5 0  0.5 10.5 0  1 10.5 0  1.5 10.5 0  2 10.5 0  2.5 10.5 0  3 10.5 0  3.5 10.5 0  4 10.5 0  4.5 10.5 0  5 10.5 0  5.5 10.5 0  6 10.5 0  6.5 10.5 0  7 10.5 0  7.5 10.5 0  8 10.5 0  8.5 10.5 0  9 10.5 0  9.5 10.5 0  10 10.5 0  10.5 10.5 0  11 10.5 0  11.5 10.5 0  12 10.5 0  12.5 10.5 0  13 10.5 0  13.5 10.5 0  14 10.5 0  14.5 10.5 0  15 10.5 0  15.5 10.5 0  16 10.5 0  16.5 10.5 0  17 10.5 0  17.5 10.5 0  18 10.5 0  18.5 10.5 0  19 10.5 0  19.5 10.5 0  20 10.5 0  0 11 0  0.5 11 0  1 11 0  1.5 11 0  2 11 0  2.5 11 0  3 11 0  3.5 11 0  4 11 0  4.5 11 0  5 11 0  5.5 11 0  6 11 0  6.5 11 0  7 11 0  7.5 11 0  8 11 0  8.5 11 0  9 11 0  9.5 11 0  10 11 0  10.5 11 0  11 11 0  11.5 11 0  12 11 0  12.5 11 0  13 11 0  13.5 11 0  14 11 0  14.5 11 0  15 11 0  15.5 11 0  16 11 0  16.5 11 0  17 11 0  17.5 11 0  18 11 0  18.5 11 0  19 11 0  19.5 11 0  20 11 0  0 11.5 0  0.5 11.5 0  1 11.5 0  1.5 11.5 0  2 11.5 0  2.5 11.5 0  3 11.5 0  3.5 11.5 0  4 11.5 0  4.5 11.5 0  5 11.5 0  5.5 11.5 0  6 11.5 0  6.5 11.5 0  7 11.5 0  7.5 11.5 0  8 11.5 0  8.5 11.5 0  9 11.5 0  9.5 11.5 0  10 11.5 0  10.5 11.5 0  11 11.5 0  11.5 11.5 0  12 11.5 0  12.5 11.5 0  13 11.5 0  13.5 11.5 0  14 11.5 0  14.5 11.5 0  15 11.5 0  15.5 11.5 0  16 11.5 0  16.5 11.5 0  17 11.5 0  17.5 11.5 0  18 11.5 0  18.5 11.5 0  19 11.5 0  19.5 11.5 0  20 11.5 0  0 12 0  0.5 12 0  1 12 0  1.5 12 0  2 12 0  2.5 12 0  3 12 0  3.5 12 0  4 12 0  4.5 12 0  5 12 0  5.5 12 0  6 12 0  6.5 12 0  7 12 0  7.5 12 0  8 12 0  8.5 12 0  9 12 0  9.5 12 0  10 12 0  10.5 12 0  11 12 0  11.5 12 0  12 12 0  12.5 12 0  13 12 0  13.5 12 0  14 12 0  14.5 12 0  
[...]
<PointData  Vectors="f_5623-0"> 
<DataArray  type="Float64"  Name="f_5623-0"  NumberOfComponents="3" format="ascii">0.0000000000000000e+00 0.0000000000000000e+00 0.0000000000000000e+00  1.1904551722695884e-06 0.0000000000000000e+00 0.0000000000000000e+00  5.7854230326445195e-06 0.0000000000000000e+00 0.0000000000000000e+00  1.8285980985304770e-05 0.0000000000000000e+00 0.0000000000000000e+00  4.2612710005263551e-05 0.0000000000000000e+00 0.0000000000000000e+00  8.2608481790416677e-05 0.0000000000000000e+00 0.0000000000000000e+00  1.4205114158563736e-04 0.0000000000000000e+00 0.0000000000000000e+00  2.2463208401508875e-04 0.0000000000000000e+00 0.0000000000000000e+00  3.3393285452641263e-04 0.0000000000000000e+00 0.0000000000000000e+00  4.7340021776022247e-04 0.0000000000000000e+00 0.0000000000000000e+00  6.4631851658237399e-04 0.0000000000000000e+00 0.0000000000000000e+00  8.5577812250272288e-04 0.0000000000000000e+00 0.0000000000000000e+00  1.1046384866872216e-03 0.0000000000000000e+00 0.0000000000000000e+00  1.3954836986868760e-03 0.0000000000000000e+00 0.0000000000000000e+00  1.7305675030246945e-03 0.0000000000000000e+00 0.0000000000000000e+00  2.1117432937636854e-03 0.0000000000000000e+00 0.0000000000000000e+00  2.5403725275925061e-03 0.0000000000000000e+00 0.0000000000000000e+00  3.0172020367333768e-03 0.0000000000000000e+00 0.0000000000000000e+00  3.5421966036597000e-03 0.0000000000000000e+00 0.0000000000000000e+00  4.1143075570003566e-03 0.0000000000000000e+00 0.0000000000000000e+00  4.7311507261465231e-03 0.0000000000000000e+00 0.0000000000000000e+00  5.3885575506454264e-03 0.0000000000000000e+00 0.0000000000000000e+00  6.0799513104244441e-03 0.0000000000000000e+00 0.0000000000000000e+00  6.7954864290978760e-03 0.0000000000000000e+00 0.0000000000000000e+00  7.5208731980072425e-03 0.0000000000000000e+00 0.0000000000000000e+00  8.2357944471219743e-03 0.0000000000000000e+00 0.0000000000000000e+00  8.9118071791413379e-03 0.0000000000000000e+00 0.0000000000000000e+00  9.5096150963683602e-03 0.0000000000000000e+00 0.0000000000000000e+00  9.9756033909611727e-03 0.0000000000000000e+00 0.0000000000000000e+00  1.0237553463930144e-02 0.0000000000000000e+00 0.0000000000000000e+00  1.0199512677418055e-02 0.0000000000000000e+00 0.0000000000000000e+00  9.7358938589336818e-03 0.0000000000000000e+00 0.0000000000000000e+00  8.6850299819113859e-03 0.0000000000000000e+00 0.0000000000000000e+00  6.8426129389841522e-03 0.0000000000000000e+00 0.0000000000000000e+00  3.9556886160818762e-03 0.0000000000000000e+00 0.0000000000000000e+00  -2.8187243630872826e-04 0.0000000000000000e+00 0.0000000000000000e+00  -6.2313223108652850e-03 0.0000000000000000e+00 0.0000000000000000e+00  -1.4307250129488008e-02 0.0000000000000000e+00 0.0000000000000000e+00  -2.4971062178256630e-02 0.0000000000000000e+00 0.0000000000000000e+00  -3.8718856127817419e-02 0.0000000000000000e+00 0.0000000000000000e+00  -5.6061358613163838e-02 0.0000000000000000e+00 0.0000000000000000e+00  0.0000000000000000e+00 1.1904551741469048e-06 0.0000000000000000e+00  -1.3287776525243358e-06 -1.3287776533614535e-06 0.0000000000000000e+00  1.4546498069696444e-06 -7.5153268480126977e-06 0.0000000000000000e+00  1.2054001754317310e-05 -1.7431815326840201e-05 0.0000000000000000e+00  3.4428876800611726e-05 -3.1167111164884774e-05 0.0000000000000000e+00  7.2457122236620498e-05 -4.8711881661241940e-05 0.0000000000000000e+00  1.2993018464470014e-04 -7.0003005291282414e-05 0.0000000000000000e+00  2.1054547296786295e-04 -9.4946090591285513e-05 0.0000000000000000e+00  3.1788860652982154e-04 -1.2342229524090644e-04 0.0000000000000000e+00  4.5541041862440831e-04 -1.5528931146223276e-04 0.0000000000000000e+00  6.2640001409960619e-04 -1.9038041290280188e-04 0.0000000000000000e+00  8.3395350565998710e-04 -2.2850285235024456e-04 0.0000000000000000e+00  1.0809371968747410e-03 -2.6943604099278389e-04 0.0000000000000000e+00  1.3699432012043143e-03 -3.1292968274115955e-04 0.0000000000000000e+00  1.7032344723606708e-03 -3.5870196681759441e-04 0.0000000000000000e+00  2.0826747711185901e-03 -4.0643790832319758e-04 0.0000000000000000e+00  2.5096370054908000e-03 -4.5578793130733695e-04 0.0000000000000000e+00  2.9848804177438214e-03 -5.0636680007398868e-04 0.0000000000000000e+00  3.5083829690821990e-03 -5.5775301918084704e-04 0.0000000000000000e+00  4.0791096682276495e-03 -6.0948883844619836e-04 0.0000000000000000e+00  4.6946901663489880e-03 -6.6108101654766980e-04 0.0000000000000000e+00  5.3509693989528097e-03 -7.1200251358915698e-04 0.0000000000000000e+00  6.0413832275021768e-03 -7.6169529873592375e-04 0.0000000000000000e+00  6.7560970263787021e-03 -8.0957447084536104e-04 0.0000000000000000e+00  7.4808295710289329e-03 -8.5503389469432129e-04 0.0000000000000000e+00  8.1952687887091175e-03 -8.9745354702720217e-04 0.0000000000000000e+00  8.8709724687940899e-03 -9.3620873826498463e-04 0.0000000000000000e+00  9.4686400111992156e-03 -9.7068131513883456e-04 0.0000000000000000e+00  9.9346468266311889e-03 -1.0002728425801783e-03 0.0000000000000000e+00  1.0196759409181506e-02 -1.0244195884430954e-03 0.0000000000000000e+00  1.0159006645600922e-02 -1.0426088668626574e-03 0.0000000000000000e+00  9.6957825780748727e-03 -1.0543959070013550e-03 0.0000000000000000e+00  8.6454064126864003e-03 -1.0594198794923555e-03 0.0000000000000000e+00  6.8035686016478256e-03 -1.0574170321896081e-03 0.0000000000000000e+00  3.9173341103587314e-03 -1.0482280922477719e-03 0.0000000000000000e+00  -3.1938093382961907e-04 -1.0317962177490373e-03 0.0000000000000000e+00  -6.2677604680492025e-03 -1.0081505645666217e-03 0.0000000000000000e+00  -1.4342339675420293e-02 -9.7736710502499351e-04 0.0000000000000000e+00  -2.5004652938046837e-02 -9.3948464069827577e-04 0.0000000000000000e+00  -3.8751973856175750e-02 -8.9430210494343483e-04 0.0000000000000000e+00  -5.6102356720744671e-02 -8.4082602018023674e-04 0.0000000000000000e+00  0.0000000000000000e+00 5.7854230348508243e-06 0.0000000000000000e+00  -7.5153268500302413e-06 1.4546498081857021e-06 0.0000000000000000e+00  -1.0696541454086869e-05 -1.0696541451493654e-05 0.0000000000000000e+00  -5.9941855081087096e-06 -3.0568180857866297e-05 0.0000000000000000e+00  1.0485585862500840e-05 -5.8123450664251603e-05 0.0000000000000000e+00  4.2610931138434491e-05 -9.3282060200716745e-05 0.0000000000000000e+00  9.4180113618656648e-05 -1.3591339266370563e-04 0.0000000000000000e+00  1.6890037079198778e-04 -1.8583654872576135e-04 0.0000000000000000e+00  2.7036812947404959e-04 -2.4282175638986995e-04 0.0000000000000000e+00  4.0204648279087112e-04 -3.0659046209814342e-04 0.0000000000000000e+00  5.6723896765557000e-04 -3.7681383737159306e-04 0.0000000000000000e+00  7.6905885889375211e-04 -4.5311017968437058e-04 0.0000000000000000e+00  1.0103927262162021e-03 -5.3504169345885207e-04 0.0000000000000000e+00  1.2938562753498381e-03 -6.2211101188528806e-04 0.0000000000000000e+00  1.6217394705819459e-03 -7.1375772922121551e-04 0.0000000000000000e+00  1.9959364691469412e-03 -8.0935517176191263e-04 0.0000000000000000e+00  2.4178537974027534e-03 -9.0820762692658537e-04 0.0000000000000000e+00  2.8882872267793763e-03 -1.0095482602808484e-03 0.0000000000000000e+00  3.4072536794685425e-03 -1.1125379706188347e-03 0.0000000000000000e+00  3.9737588858400133e-03 -1.2162654583752345e-03 0.0000000000000000e+00  4.5854740907773344e-03 -1.3197488086564386e-03 0.0000000000000000e+00  5.2382855663856264e-03 -1.4219389137143984e-03 0.0000000000000000e+00  5.9256688676742157e-03 -1.5217250764050811e-03 0.0000000000000000e+00  6.6378257747062601e-03 -1.6179431401992131e-03 0.0000000000000000e+00  7.3605062992441574e-03 -1.7093864747165916e-03 0.0000000000000000e+00  8.0734223774795721e-03 -1.7948200985432442e-03 0.0000000000000000e+00  8.7481464602003345e-03 -1.8729981309586691e-03 0.0000000000000000e+00  9.3453812652379235e-03 -1.9426846166021097e-03 0.0000000000000000e+00  9.8114925769903702e-03 -2.0026775480427696e-03 0.0000000000000000e+00  1.0074223469909658e-02 -2.0518356060090395e-03 0.0000000000000000e+00  1.0037565934418508e-02 -2.0891067366260729e-03 0.0000000000000000e+00  9.5758655198400992e-03 -2.1135571831042733e-03 0.0000000000000000e+00  8.5273850250893041e-03 -2.1243989861394440e-03 0.0000000000000000e+00  6.6877559177363696e-03 -2.1210132595900540e-03 0.0000000000000000e+00  3.8039877508165422e-03 -2.1029656975037718e-03 0.0000000000000000e+00  -4.3005011214512870e-04 -2.0700096153351958e-03 0.0000000000000000e+00  -6.3755788921624089e-03 -2.0220698976876061e-03 0.0000000000000000e+00  -1.4447168887688362e-02 -1.9591976148992897e-03 0.0000000000000000e+00  -2.5106401449423853e-02 -1.8814800173416405e-03 0.0000000000000000e+00  -3.8850565420638784e-02 -1.7888963580967015e-03 0.0000000000000000e+00  -5.6196868130689040e-02 -1.6812035695083114e-03 0.0000000000000000e+00  0.0000000000000000e+00 1.8285980988976017e-05 0.0000000000000000e+00  -1.7431815325269972e-05 1.2054001755264360e-05 0.0000000000000000e+00  -3.0568180855724646e-05 -5.9941855070955650e-06 0.0000000000000000e+00  -3.5741236707898192e-05 -3.5741236707351767e-05 0.0000000000000000e+00  -2.9111517733345412e-05 -7.7075484265071406e-05 0.0000000000000000e+00  -6.8256439271940156e-06 -1.2984406953488387e-04 0.0000000000000000e+00  3.4914470746499857e-05 -1.9383438172799962e-04 0.0000000000000000e+00  9.9823876884934832e-05 -2.6877017785998568e-04 0.0000000000000000e+00  1.9151234502255381e-04 -3.5430868952334295e-04 0.0000000000000000e+00  3.1346106320578567e-04 -4.5003712513214599e-04 0.0000000000000000e+00  4.6899641573668402e-04 -5.5546853373937349e-04 0.0000000000000000e+00  6.6125955838666013e-04 -6.7003710478783125e-04 0.0000000000000000e+00  8.9317029323813027e-04 -7.9309305720892600e-04 0.0000000000000000e+00  1.1673831512693828e-03 -9.2389733885552385e-04 0.0000000000000000e+00  1.4862326226642139e-03 -1.0616163974608535e-03 0.0000000000000000e+00  1.8516630285332102e-03 -1.2053173116454749e-03 0.0000000000000000e+00  2.2651364325475868e-03 -1.3539635955325884e-03 0.0000000000000000e+00  2.7275090182819809e-03 -1.5064120194919132e-03 0.0000000000000000e+00  3.2388622279751890e-03 -1.6614108221586655e-03 0.0000000000000000e+00  3.7982693493413973e-03 -1.8175997235031587e-03 0.0000000000000000e+00  4.4034708137934021e-03 -1.9735121805857137e-03 0.0000000000000000e+00  5.0504219361047894e-03 -2.1275803528436050e-03 0.0000000000000000e+00  5.7326650173353030e-03 -2.2781432547190586e-03 0.0000000000000000e+00  6.4404637625447968e-03 -2.4234585621199941e-03 0.0000000000000000e+00  7.1596224339871856e-03 -2.5617184945959564e-03 0.0000000000000000e+00  7.8698964543930001e-03 -2.6910701056489439e-03 0.0000000000000000e+00  8.5428878309605997e-03 -2.8096401658602630e-03 0.0000000000000000e+00  9.1393119049763133e-03 -2.9155646070006440e-03 0.0000000000000000e+00  9.6055276388812092e-03 -3.0070222030420734e-03 0.0000000000000000e+00  9.8692502209651936e-03 -3.0822717968222143e-03 0.0000000000000000e+00  9.8344224071787237e-03 -3.1396919495062479e-03 0.0000000000000000e+00  9.3753206162826095e-03 -3.1778214097590253e-03 0.0000000000000000e+00  8.3301220573579506e-03 -3.1953982819156873e-03 0.0000000000000000e+00  6.4943615398392216e-03 -3.1913951985697285e-03 0.0000000000000000e+00  3.6149478735049887e-03 -3.1650470896030717e-03 0.0000000000000000e+00  -6.1434632527693905e-04 -3.1158671264189088e-03 0.0000000000000000e+00  -6.5548257006247286e-03 -3.0436449711297967e-03 0.0000000000000000e+00  -1.4621117511690528e-02 -2.9484199509691137e-03 0.0000000000000000e+00  -2.5274808618143494e-02 -2.8304222369682558e-03 0.0000000000000000e+00  -3.9013086066959878e-02 -2.6899811878754363e-03 0.0000000000000000e+00  -5.6352838095046633e-02 -2.5274011986310490e-03 0.0000000000000000e+00  0.0000000000000000e+00 4.2612710007695721e-05 0.0000000000000000e+00  -3.1167111163464245e-05 3.4428876801110649e-05 0.0000000000000000e+00  -5.8123450663394243e-05 1.0485585862713576e-05 0.0000000000000000e+00  -7.7075484264467370e-05 -2.9111517731504511e-05 0.0000000000000000e+00  -8.4200806163631537e-05 -8.4200806164499048e-05 0.0000000000000000e+00  -7.5656608967010006e-05 -1.5456594454825651e-04 0.0000000000000000e+00  -4.7643549119814307e-05 -2.3991807611281407e-04 0.0000000000000000e+00  3.5628450044721220e-06 -3.3988880613078278e-04 0.0000000000000000e+00  8.1588672425103736e-05 -4.5402495102873783e-04 0.0000000000000000e+00  1.8993825942105572e-04 -5.8178290213770111e-04 0.0000000000000000e+00  3.3196819071638347e-04 -7.2252227508166282e-04 0.0000000000000000e+00  5.1085723990952159e-04 -8.7549897067221833e-04 0.0000000000000000e+00  7.2957058898483001e-04 -1.0398578653255299e-03 0.0000000000000000e+00  9.9081616616817562e-04 -1.2146253835709849e-03 0.0000000000000000e+00  1.2969899780137107e-03 -1.3987022442011252e-03 0.0000000000000000e+00  1.6501058739046930e-03 -1.5908567177649712e-03 0.0000000000000000e+00  2.0517030897288851e-03 -1.7897187828396816e-03 0.0000000000000000e+00  2.5027219464451222e-03 -1.9937756190421883e-03 0.0000000000000000e+00  3.0033339498400746e-03 -2.2013689251633418e-03 0.0000000000000000e+00  3.5527069309324159e-03 -2.4106945980437466e-03 0.0000000000000000e+00  4.1486784486166259e-03 -2.6198053475093614e-03 0.0000000000000000e+00  4.7873011539389908e-03 -2.8266168499440501e-03 0.0000000000000000e+00  5.4622120268261664e-03 -3.0289180482673496e-03 0.0000000000000000e+00  6.1637634562455874e-03 -3.2243861806117175e-03 0.0000000000000000e+00  6.8778386486361099e-03 -3.4106070506008603e-03 0.0000000000000000e+00  7.5842582032288608e-03 -3.5851009282640272e-03 0.0000000000000000e+00  8.2546714243617592e-03 -3.7453542798686879e-03 0.0000000000000000e+00  8.8498191610944972e-03 -3.8888572629549880e-03 0.0000000000000000e+00  9.3160607574006536e-03 -4.0131465908837070e-03 0.0000000000000000e+00  9.5810843320387057e-03 -4.1158529834735263e-03 0.0000000000000000e+00  9.5487772681440014e-03 -4.1947520012805212e-03 0.0000000000000000e+00  9.0933333358236609e-03 -4.2478166378770253e-03 0.0000000000000000e+00  8.0528229862315958e-03 -4.2732696289960919e-03 0.0000000000000000e+00  6.2226555035067915e-03 -4.2696329960083459e-03 0.0000000000000000e+00  3.3496027479174976e-03 -4.2357717728840234e-03 0.0000000000000000e+00  -8.7270189455296494e-04 -4.1709280312831193e-03 0.0000000000000000e+00  -6.8056935100365293e-03 -4.0747401809007018e-03 0.0000000000000000e+00  -1.4864107291855368e-02 -3.9472413784790257e-03 0.0000000000000000e+00  -2.5509597835500799e-02 -3.7888301162338194e-03 0.0000000000000000e+00  -3.9239352174192228e-02 -3.6002034321130664e-03 0.0000000000000000e+00  -5.6570107944569979e-02 -3.3822266179624094e-03 0.0000000000000000e+00  0.0000000000000000e+00 8.2608481794237243e-05 0.0000000000000000e+00  -4.8711881661089983e-05 7.2457122239725531e-05 0.0000000000000000e+00  -9.3282060202698802e-05 4.2610931139147063e-05 0.0000000000000000e+00  -1.2984406953455053e-04 -6.8256439253772409e-06 0.0000000000000000e+00  -1.5456594454662663e-04 -7.5656608970766374e-05 0.0000000000000000e+00  -1.6361010580847487e-04 -1.6361010581160491e-04 0.0000000000000000e+00  -1.5317435637665107e-04 -2.7032748656306328e-04 0.0000000000000000e+00  -1.1952287266270204e-04 -3.9535459775908919e-04 0.0000000000000000e+00  -5.9010011761426786e-05 -5.3813448432324450e-04 0.0000000000000000e+00  3.1896556140193421e-05 -6.9799975911895263e-04 0.0000000000000000e+00  1.5659042994536465e-04 -8.7416420951903220e-04 0.0000000000000000e+00  3.1829700335375536e-04 -1.0657137104302073e-03 0.0000000000000000e+00  5.2003820124714613e-04 -1.2715966774985133e-03 0.0000000000000000e+00  7.6458918347586014e-04 -1.4906143654750551e-03 0.0000000000000000e+00  1.0544238332676043e-03 -1.7214113690440802e-03 0.0000000000000000e+00  1.3916444107903822e-03 -1.9624667379883063e-03 0.0000000000000000e+00  1.7778886592924234e-03 -2.2120861786180221e-03 0.0000000000000000e+00  2.2142046783917802e-03 -2.4683958772746721e-03 0.0000000000000000e+00  2.7008797498665675e-03 -2.7293385456061943e-03 0.0000000000000000e+00  3.2372036976487878e-03 -2.9926723469625850e-03 0.0000000000000000e+00  3.8211399541374833e-03 -3.2559734122383568e-03 0.0000000000000000e+00  4.4488679982171691e-03 -3.5166426849853531e-03 0.0000000000000000e+00  5.1141490668588068e-03 -3.7719178394098963e-03 0.0000000000000000e+00  5.8074531397449584e-03 -4.0188909803533512e-03 0.0000000000000000e+00  6.5147697620359622e-03 -4.2545327487868391e-03 0.0000000000000000e+00  7.2160096911609486e-03 -4.4757233091589034e-03 0.0000000000000000e+00  7.8828911653743457e-03 -4.6792904772503122e-03 0.0000000000000000e+00  8.4761978996291138e-03 -4.8620549585171383e-03 0.0000000000000000e+00  8.9423017901418596e-03 -5.0208823167779961e-03 0.0000000000000000e+00  9.2088700039742698e-03 -5.1527409035439561e-03 0.0000000000000000e+00  9.1797338010769884e-03 -5.2547645820969638e-03 0.0000000000000000e+00  8.7289959170904728e-03 -5.3243187080945715e-03 0.0000000000000000e+00  7.6946033024498208e-03 -5.3590674872316365e-03 0.0000000000000000e+00  5.8718139478888386e-03 -5.3570404721235369e-03 0.0000000000000000e+00  3.0072273557045287e-03 -5.3166954648703104e-03 0.0000000000000000e+00  -1.2057080328243706e-03 -5.2369742934086916e-03 0.0000000000000000e+00  -7.1286148880043542e-03 -5.1173467281701778e-03 0.0000000000000000e+00  -1.5176407189041341e-02 -4.9578362922982440e-03 0.0000000000000000e+00  -2.5810894798788637e-02 -4.7590200992539012e-03 0.0000000000000000e+00  -3.9529366773234889e-02 -4.5219933373847150e-03 0.0000000000000000e+00  -5.6848512630261465e-02 -4.2482923713580015e-03 0.0000000000000000e+00  0.0000000000000000e+00 1.4205114158644095e-04 0.0000000000000000e+00  -7.0003005291853382e-05 1.2993018464436382e-04 0.0000000000000000e+00  -1.3591339266272833e-04 9.4180113620709327e-05 0.0000000000000000e+00  -1.9383438172691355e-04 3.4914470746052441e-05 0.0000000000000000e+00  -2.3991807611207998e-04 -4.7643549123355278e-05 0.0000000000000000e+00  -2.7032748656369450e-04 -1.5317435637672938e-04 0.0000000000000000e+00  -2.8125658146097281e-04 -2.8125658145930222e-04 0.0000000000000000e+00  -2.6895712771535723e-04 -4.3135793764471388e-04 0.0000000000000000e+00  -2.2976163718501437e-04 -6.0282618382238656e-04 0.0000000000000000e+00  -1.6010579359894062e-04 -7.9487951333188727e-04 0.0000000000000000e+00  -5.6553050235852423e-05 -1.0065960580582576e-03 0.0000000000000000e+00  8.4176715934090618e-05 -1.2369025683722854e-03 0.0000000000000000e+00  2.6517265296156783e-04 -1.4845625103584012e-03 0.0000000000000000e+00  4.8929016127581006e-04 -1.7481639195032687e-03 0.0000000000000000e+00  7.5909664832109387e-04 -2.0261074233129403e-03 0.0000000000000000e+00  1.0768011244729489e-03 -2.3165949162522776e-03 0.0000000000000000e+00  1.4441608586160297e-03 -2.6176194449620827e-03 0.0000000000000000e+00  1.8623553366668138e-03 -2.9269569392379596e-03 0.0000000000000000e+00  2.3318136363880207e-03 -3.2421605024656368e-03 0.0000000000000000e+00  2.8519757322071067e-03 -3.5605580477147689e-03 0.0000000000000000e+00  3.4209608437943237e-03 -3.8792541267064010e-03 0.0000000000000000e+00  4.0351064539606730e-03 -4.1951368386081191e-03 0.0000000000000000e+00  4.6883298869689052e-03 -4.5048907138683942e-03 0.0000000000000000e+00  5.3712504780362167e-03 -4.8050164330087066e-03 0.0000000000000000e+00  6.0699949873164634e-03 -5.0918581487621956e-03 0.0000000000000000e+00  6.7645934036799542e-03 -5.3616390222485039e-03 0.0000000000000000e+00  7.4268591785611624e-03 -5.6105053534456920e-03 0.0000000000000000e+00  8.0176413256579909e-03 -5.8345793859823107e-03 0.0000000000000000e+00  8.4833417786604921e-03 -6.0300205102097153e-03 0.0000000000000000e+00  8.7516181482067343e-03 -6.1930942035070685e-03 0.0000000000000000e+00  8.7262496968123215e-03 -6.3202476677017890e-03 0.0000000000000000e+00  8.2812437673059538e-03 -6.4081907792432006e-03 0.0000000000000000e+00  7.2544097237955468e-03 -6.4539806560672984e-03 0.0000000000000000e+00  5.4408291906910006e-03 -6.4551078011828621e-03 0.0000000000000