<?xml version="1.0"?>
<VTKFile type="UnstructuredGrid"  version="0.1"  >
<UnstructuredGrid>
<Piece  NumberOfPoints="1681" NumberOfCells="3200">
<Points>
<DataArray  type="Float64"  NumberOfComponents="3"  format="ascii">0 0 0  0.5 0 0  1 0 0  1.5 0 0  2 0 0  2.5 0 0  3 0 0  3.5 0 0  4 0 0  4.5 0 0  5 0 0  5.5 0 0  6 0 0  6.5 0 0  7 0 0  7.5 0 0  8 0 0  8.5 0 0  9 0 0  9.5 0 0  10 0 0  10.5 0 0  11 0 0  11.5 0 0  12 0 0  12.5 0 0  13 0 0  13.5 0 0  14 0 0  14.5 0 0  15 0 0  15.5 0 0  16 0 0  16.5 0 0  17 0 0  17.5 0 0  18 0 0  18.5 0 0  19 0 0  19.5 0 0  20 0 0  0 0.5 0  0.5 0.5 0  1 0.5 0  1.5 0.5 0  2 0.5 0  2.5 0.5 0  3 0.5 0  3.5 0.5 0  4 0.5 0  4.5 0.5 0  5 0.5 0  5.5 0.5 0  6 0.5 0  6.5 0.5 0  7 0.5 0  7.5 0.5 0  8 0.5 0  8.5 0.5 0  9 0.5 0  9.5 0.5 0  10 0.5 0  10.5 0.5 0  11 0.5 0  11.5 0.5 0  12 0.5 0  12.5 0.5 0  13 0.5 0  13.5 0.5 0  14 0.5 0  14.5 0.5 0  15 0.5 0  15.5 0.5 0  16 0.5 0  16.5 0.5 0  17 0.5 0  17.5 0.5 0  18 0.5 0  18.5 0.5 0  19 0.5 0  19.5 0.5 0  20 0.5 0  0 1 0  0.5 1 0  1 1 0  1.5 1 0  2 1 0  2.5 1 0  3 1 0  3.5 1 0  4 1 0  4.5 1 0  5 1 0  5.5 1 0  6 1 0  6.5 1 0  7 1 0  7.5 1 0  8 1 0  8.5 1 0  9 1 0  9.5 1 0  10 1 0  10.5 1 0  11 1 0  11.5 1 0  12 1 0  12.5 1 0  13 1 0  13.5 1 0  14 1 0  14.5 1 0  15 1 0  15.5 1 0  16 1 0  16.5 1 0  17 1 0  17.5 1 0  18 1 0  18.5 1 0  19 1 0  19.5 1 0  20 1 0  0 1.5 0  0.5 1.5 0  1 1.5 0  1.5 1.5 0  2 1.5 0  2.5 1.5 0  3 1.5 0  3.5 1.5 0  4 1.5 0  4.5 1.5 0  5 1.5 0  5.5 1.5 0  6 1.5 0  6.5 1.5 0  7 1.5 0  7.5 1.5 0  8 1.5 0  8.5 1.5 0  9 1.5 0  9.5 1.5 0  10 1.5 0  10.5 1.5 0  11 1.5 0  11.5 1.5 0  12 1.5 0  12.5 1.5 0  13 1.5 0  13.5 1.5 0  14 1.5 0  14.5 1.5 0  15 1.5 0  15.5 1.5 0  16 1.5 0  16.5 1.5 0  17 1.5 0  17.5 1.5 0  18 1.5 0  18.5 1.5 0  19 1.5 0  19.5 1.5 0  20 1.5 0  0 2 0  0.5 2 0  1 2 0  1.5 2 0  2 2 0  2.5 2 0  3 2 0  3.5 2 0  4 2 0  4.5 2 0  5 2 0  5.5 2 0  6 2 0  6.5 2 0  7 2 0  7.5 2 0  8 2 0  8.5 2 0  9 2 0  9.5 2 0  10 2 0  10.5 2 0  11 2 0  11.5 2 0  12 2 0  12.5 2 0  13 2 0  13.5 2 0  14 2 0  14.5 2 0  15 2 0  15.5 2 0  16 2 0  16.5 2 0  17 2 0  17.5 2 0  18 2 0  18.5 2 0  19 2 0  19.5 2 0  20 2 0  0 2.5 0  0.5 2.5 0  1 2.5 0  1.5 2.5 0  2 2.5 0  2.5 2.5 0  3 2.5 0  3.5 2.5 0  4 2.5 0  4.5 2.5 0  5 2.5 0  5.5 2.5 0  6 2.5 0  6.5 2.5 0  7 2.5 0  7.5 2.5 0  8 2.5 0  8.5 2.5 0  9 2.5 0  9.5 2.5 0  10 2.5 0  10.5 2.5 0  11 2.5 0  11.5 2.5 0  12 2.5 0  12.5 2.5 0  13 2.5 0  13.5 2.5 0  14 2.5 0  14.5 2.5 0  15 2.5 0  15.5 2.5 0  16 2.5 0  16.5 2.5 0  17 2.5 0  17.5 2.5 0  18 2.5 0  18.5 2.5 0  19 2.5 0  19.5 2.5 0  20 2.5 0  0 3 0  0.5 3 0  1 3 0  1.5 3 0  2 3 0  2.5 3 0  3 3 0  3.5 3 0  4 3 0  4.5 3 0  5 3 0  5.5 3 0  6 3 0  6.5 3 0  7 3 0  7.5 3 0  8 3 0  8.5 3 0  9 3 0  9.5 3 0  10 3 0  10.5 3 0  11 3 0  11.5 3 0  12 3 0  12.5 3 0  13 3 0  13.5 3 0  14 3 0  14.5 3 0  15 3 0  15.5 3 0  16 3 0  16.5 3 0  17 3 0  17.5 3 0  18 3 0  18.5 3 0  19 3 0  19.5 3 0  20 3 0  0 3.5 0  0.5 3.5 0  1 3.5 0  1.5 3.5 0  2 3.5 0  2.5 3.5 0  3 3.5 0  3.5 3.5 0  4 3.5 0  4.5 3.5 0  5 3.5 0  5.5 3.5 0  6 3.5 0  6.5 3.5 0  7 3.5 0  7.5 3.5 0  8 3.5 0  8.5 3.5 0  9 3.5 0  9.5 3.5 0  10 3.5 0  10.5 3.5 0  11 3.5 0  11.5 3.5 0  12 3.5 0  12.5 3.5 0  13 3.5 0  13.5 3.5 0  14 3.5 0  14.5 3.5 0  15 3.5 0  15.5 3.5 0  16 3.5 0  16.5 3.5 0  17 3.5 0  17.5 3.5 0  18 3.5 0  18.5 3.5 0  19 3.5 0  19.5 3.5 0  20 3.5 0  0 4 0  0.5 4 0  1 4 0  1.5 4 0  2 4 0  2.5 4 0  3 4 0  3.5 4 0  4 4 0  4.5 4 0  5 4 0  5.5 4 0  6 4 0  6.5 4 0  7 4 0  7.5 4 0  8 4 0  8.5 4 0  9 4 0  9.5 4 0  10 4 0  10.5 4 0  11 4 0  11.5 4 0  12 4 0  12.5 4 0  13 4 0  13.5 4 0  14 4 0  14.5 4 0  15 4 0  15.5 4 0  16 4 0  16.5 4 0  17 4 0  17.5 4 0  18 4 0  18.5 4 0  19 4 0  19.5 4 0  20 4 0  0 4.5 0  0.5 4.5 0  1 4.5 0  1.5 4.5 0  2 4.5 0  2.5 4.5 0  3 4.5 0  3.5 4.5 0  4 4.5 0  4.5 4.5 0  5 4.5 0  5.5 4.5 0  6 4.5 0  6.5 4.5 0  7 4.5 0  7.5 4.5 0  8 4.5 0  8.5 4.5 0  9 4.5 0  9.5 4.5 0  10 4.5 0  10.5 4.5 0  11 4.5 0  11.5 4.5 0  12 4.5 0  12.5 4.5 0  13 4.5 0  13.5 4.5 0  14 4.5 0  14.5 4.5 0  15 4.5 0  15.5 4.5 0  16 4.5 0  16.5 4.5 0  17 4.5 0  17.5 4.5 0  18 4.5 0  18.5 4.5 0  19 4.5 0  19.5 4.5 0  20 4.5 0  0 5 0  0.5 5 0  1 5 0  1.5 5 0  2 5 0  2.5 5 0  3 5 0  3.5 5 0  4 5 0  4.5 5 0  5 5 0  5.5 5 0  6 5 0  6.5 5 0  7 5 0  7.5 5 0  8 5 0  8.5 5 0  9 5 0  9.5 5 0  10 5 0  10.5 5 0  11 5 0  11.5 5 0  12 5 0  12.5 5 0  13 5 0  13.5 5 0  14 5 0  14.5 5 0  15 5 0  15.5 5 0  16 5 0  16.5 5 0  17 5 0  17.5 5 0  18 5 0  18.5 5 0  19 5 0  19.5 5 0  20 5 0  0 5.5 0  0.5 5.5 0  1 5.5 0  1.5 5.5 0  2 5.5 0  2.5 5.5 0  3 5.5 0  3.5 5.5 0  4 5.5 0  4.5 5.5 0  5 5.5 0  5.5 5.5 0  6 5.5 0  6.5 5.5 0  7 5.5 0  7.5 5.5 0  8 5.5 0  8.5 5.5 0  9 5.5 0  9.5 5.5 0  10 5.5 0  10.5 5.5 0  11 5.5 0  11.5 5.5 0  12 5.5 0  12.5 5.5 0  13 5.5 0  13.5 5.5 0  14 5.5 0  14.5 5.5 0  15 5.5 0  15.5 5.5 0  16 5.5 0  16.5 5.5 0  17 5.5 0  17.5 5.5 0  18 5.5 0  18.5 5.5 0  19 5.5 0  19.5 5.5 0  20 5.5 0  0 6 0  0.5 6 0  1 6 0  1.5 6 0  2 6 0  2.5 6 0  3 6 0  3.5 6 0  4 6 0  4.5 6 0  5 6 0  5.5 6 0  6 6 0  6.5 6 0  7 6 0  7.5 6 0  8 6 0  8.5 6 0  9 6 0  9.5 6 0  10 6 0  10.5 6 0  11 6 0  11.5 6 0  12 6 0  12.5 6 0  13 6 0  13.5 6 0  14 6 0  14.5 6 0  15 6 0  15.5 6 0  16 6 0  16.5 6 0  17 6 0  17.5 6 0  18 6 0  18.5 6 0  19 6 0  19.5 6 0  20 6 0  0 6.5 0  0.5 6.5 0  1 6.5 0  1.5 6.5 0  2 6.5 0  2.5 6.5 0  3 6.5 0  3.5 6.5 0  4 6.5 0  4.5 6.5 0  5 6.5 0  5.5 6.5 0  6 6.5 0  6.5 6.5 0  7 6.5 0  7.5 6.5 0  8 6.5 0  8.5 6.5 0  9 6.5 0  9.5 6.5 0  10 6.5 0  10.5 6.5 0  11 6.5 0  11.5 6.5 0  12 6.5 0  12.5 6.5 0  13 6.5 0  13.5 6.5 0  14 6.5 0  14.5 6.5 0  15 6.5 0  15.5 6.5 0  16 6.5 0  16.5 6.5 0  17 6.5 0  17.5 6.5 0  18 6.5 0  18.5 6.5 0  19 6.5 0  19.5 6.5 0  20 6.5 0  0 7 0  0.5 7 0  1 7 0  1.5 7 0  2 7 0  2.5 7 0  3 7 0  3.5 7 0  4 7 0  4.5 7 0  5 7 0  5.5 7 0  6 7 0  6.5 7 0  7 7 0  7.5 7 0  8 7 0  8.5 7 0  9 7 0  9.5 7 0  10 7 0  10.5 7 0  11 7 0  11.5 7 0  12 7 0  12.5 7 0  13 7 0  13.5 7 0  14 7 0  14.5 7 0  15 7 0  15.5 7 0  16 7 0  16.5 7 0  17 7 0  17.5 7 0  18 7 0  18.5 7 0  19 7 0  19.5 7 0  20 7 0  0 7.5 0  0.5 7.5 0  1 7.5 0  1.5 7.5 0  2 7.5 0  2.5 7.5 0  3 7.5 0  3.5 7.5 0  4 7.5 0  4.5 7.5 0  5 7.5 0  5.5 7.5 0  6 7.5 0  6.5 7.5 0  7 7.5 0  7.5 7.5 0  8 7.5 0  8.5 7.5 0  9 7.5 0  9.5 7.5 0  10 7.5 0  10.5 7.5 0  11 7.5 0  11.5 7.5 0  12 7.5 0  12.5 7.5 0  13 7.5 0  13.5 7.5 0  14 7.5 0  14.5 7.5 0  15 7.5 0  15.5 7.5 0  16 7.5 0  16.5 7.5 0  17 7.5 0  17.5 7.5 0  18 7.5 0  18.5 7.5 0  19 7.5 0  19.5 7.5 0  20 7.5 0  0 8 0  0.5 8 0  1 8 0  1.5 8 0  2 8 0  2.5 8 0  3 8 0  3.5 8 0  4 8 0  4.5 8 0  5 8 0  5.5 8 0  6 8 0  6.5 8 0  7 8 0  7.5 8 0  8 8 0  8.5 8 0  9 8 0  9.5 8 0  10 8 0  10.5 8 0  11 8 0  11.5 8 0  12 8 0  12.5 8 0  13 8 0  13.5 8 0  14 8 0  14.5 8 0  15 8 0  15.5 8 0  16 8 0  16.5 8 0  17 8 0  17.5 8 0  18 8 0  18.5 8 0  19 8 0  19.5 8 0  20 8 0  0 8.5 0  0.5 8.5 0  1 8.5 0  1.5 8.5 0  2 8.5 0  2.5 8.5 0  3 8.5 0  3.5 8.5 0  4 8.5 0  4.5 8.5 0  5 8.5 0  5.5 8.5 0  6 8.5 0  6.5 8.5 0  7 8.5 0  7.5 8.5 0  8 8.5 0  8.5 8.5 0  9 8.5 0  9.5 8.5 0  10 8.5 0  10.5 8.5 0  11 8.5 0  11.5 8.5 0  12 8.5 0  12.5 8.5 0  13 8.5 0  13.5 8.5 0  14 8.5 0  14.5 8.5 0  15 8.5 0  15.5 8.5 0  16 8.5 0  16.5 8.5 0  17 8.5 0  17.5 8.5 0  18 8.5 0  18.5 8.5 0  19 8.5 0  19.5 8.5 0  20 8.5 0  0 9 0  0.5 9 0  1 9 0  1.5 9 0  2 9 0  2.5 9 0  3 9 0  3.5 9 0  4 9 0  4.5 9 0  5 9 0  5.5 9 0  6 9 0  6.5 9 0  7 9 0  7.5 9 0  8 9 0  8.5 9 0  9 9 0  9.5 9 0  10 9 0  10.5 9 0  11 9 0  11.5 9 0  12 9 0  12.5 9 0  13 9 0  13.5 9 0  14 9 0  14.5 9 0  15 9 0  15.5 9 0  16 9 0  16.5 9 0  17 9 0  17.5 9 0  18 9 0  18.5 9 0  19 9 0  19.5 9 0  20 9 0  0 9.5 0  0.5 9.5 0  1 9.5 0  1.5 9.5 0  2 9.5 0  2.5 9.5 0  3 9.5 0  3.5 9.5 0  4 9.5 0  4.5 9.5 0  5 9.5 0  5.5 9.5 0  6 9.5 0  6.5 9.5 0  7 9.5 0  7.5 9.5 0  8 9.5 0  8.5 9.5 0  9 9.5 0  9.5 9.5 0  10 9.5 0  10.5 9.5 0  11 9.5 0  11.5 9.5 0  12 9.5 0  12.5 9.5 0  13 9.5 0  13.5 9.5 0  14 9.5 0  14.5 9.5 0  15 9.5 0  15.5 9.5 0  16 9.5 0  16.5 9.5 0  17 9.5 0  17.5 9.5 0  18 9.5 0  18.5 9.5 0  19 9.5 0  19.5 9.5 0  20 9.5 0  0 10 0  0.5 10 0  1 10 0  1.5 10 0  2 10 0  2.5 10 0  3 10 0  3.5 10 0  4 10 0  4.5 10 0  5 10 0  5.5 10 0  6 10 0  6.5 10 0  7 10 0  7.5 10 0  8 10 0  8.5 10 0  9 10 0  9.5 10 0  10 10 0  10.5 10 0  11 10 0  11.5 10 0  12 10 0  12.5 10 0  13 10 0  13.5 10 0  14 10 0  14.5 10 0  15 10 0  15.5 10 0  16 10 0  16.5 10 0  17 10 0  17.5 10 0  18 10 0  18.5 10 0  19 10 0  19.5 10 0  20 10 0  0 10.5 0  0.5 10.5 0  1 10.5 0  1.5 10.5 0  2 10.5 0  2.5 10.5 0  3 10.5 0  3.5 10.5 0  4 10.5 0  4.5 10.5 0  5 10.5 0  5.5 10.5 0  6 10.5 0  6.5 10.5 0  7 10.5 0  7.5 10.5 0  8 10.5 0  8.5 10.5 0  9 10.5 0  9.5 10.5 0  10 10.5 0  10.5 10.5 0  11 10.5 0  11.5 10.5 0  12 10.5 0  12.5 10.5 0  13 10.5 0  13.5 10.5 0  14 10.5 0  14.5 10.5 0  15 10.5 0  15.5 10.5 0  16 10.5 0  16.5 10.5 0  17 10.5 0  17.5 10.5 0  18 10.5 0  18.5 10.5 0  19 10.5 0  19.5 10.5 0  20 10.5 0  0 11 0  0.5 11 0  1 11 0  1.5 11 0  2 11 0  2.5 11 0  3 11 0  3.5 11 0  4 11 0  4.5 11 0  5 11 0  5.5 11 0  6 11 0  6.5 11 0  7 11 0  7.5 11 0  8 11 0  8.5 11 0  9 11 0  9.5 11 0  10 11 0  10.5 11 0  11 11 0  11.5 11 0  12 11 0  12.5 11 0  13 11 0  13.5 11 0  14 11 0  14.5 11 0  15 11 0  15.5 11 0  16 11 0  16.5 11 0  17 11 0  17.5 11 0  18 11 0  18.5 11 0  19 11 0  19.5 11 0  20 11 0  0 11.5 0  0.5 11.5 0  1 11.5 0  1.5 11.5 0  2 11.5 0  2.5 11.5 0  3 11.5 0  3.5 11.5 0  4 11.5 0  4.5 11.5 0  5 11.5 0  5.5 11.5 0  6 11.5 0  6.5 11.5 0  7 11.5 0  7.5 11.5 0  8 11.5 0  8.5 11.5 0  9 11.5 0  9.5 11.5 0  10 11.5 0  10.5 11.5 0  11 11.5 0  11.5 11.5 0  12 11.5 0  12.5 11.5 0  13 11.5 0  13.5 11.5 0  14 11.5 0  14.5 11.5 0  15 11.5 0  15.5 11.5 0  16 11.5 0  16.5 11.5 0  17 11.5 0  17.5 11.5 0  18 11.5 0  18.5 11.5 0  19 11.5 0  19.5 11.5 0  20 11.5 0  0 12 0  0.5 12 0  1 12 0  1.5 12 0  2 12 0  2.5 12 0  3 12 0  3.5 12 0  4 12 0  4.5 12 0  5 12 0  5.5 12 0  6 12 0  6.5 12 0  7 12 0  7.5 12 0  8 12 0  8.5 12 0  9 12 0  9.5 12 0  10 12 0  10.5 12 0  11 12 0  11.5 12 0  12 12 0  12.5 12 0  13 12 0  13.5 12 0  14 12 0  14.5 12 0  
[...]
<PointData  Vectors="f_5623-0"> 
<DataArray  type="Float64"  Name="f_5623-0"  NumberOfComponents="3" format="ascii">0.0000000000000000e+00 0.0000000000000000e+00 0.0000000000000000e+00  9.5794939751860027e-07 0.0000000000000000e+00 0.0000000000000000e+00  4.7162311099888821e-06 0.0000000000000000e+00 0.0000000000000000e+00  1.4941462276669585e-05 0.0000000000000000e+00 0.0000000000000000e+00  3.4838427839199995e-05 0.0000000000000000e+00 0.0000000000000000e+00  6.7550171708104619e-05 0.0000000000000000e+00 0.0000000000000000e+00  1.1616731206278763e-04 0.0000000000000000e+00 0.0000000000000000e+00  1.8371066207527114e-04 0.0000000000000000e+00 0.0000000000000000e+00  2.7311259480199541e-04 0.0000000000000000e+00 0.0000000000000000e+00  3.8719752999112400e-04 0.0000000000000000e+00 0.0000000000000000e+00  5.2866074767898212e-04 0.0000000000000000e+00 0.0000000000000000e+00  7.0004481395656961e-04 0.0000000000000000e+00 0.0000000000000000e+00  9.0371279057847962e-04 0.0000000000000000e+00 0.0000000000000000e+00  1.1418170733300920e-03 0.0000000000000000e+00 0.0000000000000000e+00  1.4162621360234785e-03 0.0000000000000000e+00 0.0000000000000000e+00  1.7286585536444652e-03 0.0000000000000000e+00 0.0000000000000000e+00  2.0802642872230583e-03 0.0000000000000000e+00 0.0000000000000000e+00  2.4719071201401432e-03 0.0000000000000000e+00 0.0000000000000000e+00  2.9038790522718594e-03 0.0000000000000000e+00 0.0000000000000000e+00  3.3757890133545680e-03 0.0000000000000000e+00 0.0000000000000000e+00  3.8863539971519395e-03 0.0000000000000000e+00 0.0000000000000000e+00  4.4331001261565623e-03 0.0000000000000000e+00 0.0000000000000000e+00  5.0119337083127727e-03 0.0000000000000000e+00 0.0000000000000000e+00  5.6165276188610133e-03 0.0000000000000000e+00 0.0000000000000000e+00  6.2374502010337386e-03 0.0000000000000000e+00 0.0000000000000000e+00  6.8609427940563997e-03 0.0000000000000000e+00 0.0000000000000000e+00  7.4672294704486025e-03 0.0000000000000000e+00 0.0000000000000000e+00  8.0282217377047587e-03 0.0000000000000000e+00 0.0000000000000000e+00  8.5044673346365337e-03 0.0000000000000000e+00 0.0000000000000000e+00  8.8411944393241987e-03 0.0000000000000000e+00 0.0000000000000000e+00  8.9633328205839958e-03 0.0000000000000000e+00 0.0000000000000000e+00  8.7694672762630103e-03 0.0000000000000000e+00 0.0000000000000000e+00  8.1248131477413364e-03 0.0000000000000000e+00 0.0000000000000000e+00  6.8535126087932675e-03 0.0000000000000000e+00 0.0000000000000000e+00  4.7308357855672268e-03 0.0000000000000000e+00 0.0000000000000000e+00  1.4762101327747751e-03 0.0000000000000000e+00 0.0000000000000000e+00  -3.2516652796016421e-03 0.0000000000000000e+00 0.0000000000000000e+00  -9.8561382875186881e-03 0.0000000000000000e+00 0.0000000000000000e+00  -1.8798861757778156e-02 0.0000000000000000e+00 0.0000000000000000e+00  -3.0589608699282522e-02 0.0000000000000000e+00 0.0000000000000000e+00  -4.5767193252656366e-02 0.0000000000000000e+00 0.0000000000000000e+00  0.0000000000000000e+00 9.5794939739553337e-07 0.0000000000000000e+00  -1.0913885379447734e-06 -1.0913885382156870e-06 0.0000000000000000e+00  1.1811605059800031e-06 -6.1427680777307853e-06 0.0000000000000000e+00  9.8489263539097583e-06 -1.4248867633495082e-05 0.0000000000000000e+00  2.8148525755810214e-05 -2.5480149069487118e-05 0.0000000000000000e+00  5.9250889539170219e-05 -3.9827659265592703e-05 0.0000000000000000e+00  1.0625736582690735e-04 -5.7239127329362893e-05 0.0000000000000000e+00  1.7219348938174128e-04 -7.7637012278568667e-05 0.0000000000000000e+00  2.5999486973498671e-04 -1.0092389213828394e-04 0.0000000000000000e+00  3.7248921569902157e-04 -1.2698318097744733e-04 0.0000000000000000e+00  5.1237569832398504e-04 -1.5567830285681124e-04 0.0000000000000000e+00  6.8220159908978224e-04 -1.8685135286330808e-04 0.0000000000000000e+00  8.8433562159729391e-04 -2.2032158766358448e-04 0.0000000000000000e+00  1.1209367769728579e-03 -2.5588388298691979e-04 0.0000000000000000e+00  1.3939171397384744e-03 -2.9330723969854435e-04 0.0000000000000000e+00  1.7048958516772271e-03 -3.3233340927200851e-04 0.0000000000000000e+00  2.0551403537153196e-03 -3.7267571303717666e-04 0.0000000000000000e+00  2.4454887295085126e-03 -4.1401813809026469e-04 0.0000000000000000e+00  2.8762439583552564e-03 -4.5601480411410118e-04 0.0000000000000000e+00  3.3470264276862678e-03 -4.9828990845278680e-04 0.0000000000000000e+00  3.8565647927120408e-03 -5.4043827202386065e-04 0.0000000000000000e+00  4.4023966763757109e-03 -5.8202662556561409e-04 0.0000000000000000e+00  4.9804392528311290e-03 -6.2259579475528457e-04 0.0000000000000000e+00  5.5843750299855929e-03 -6.6166396206409218e-04 0.0000000000000000e+00  6.2047800135390761e-03 -6.9873120091783073e-04 0.0000000000000000e+00  6.8279003658503739e-03 -7.3328548831913878e-04 0.0000000000000000e+00  7.4339611795560551e-03 -7.6481039841934926e-04 0.0000000000000000e+00  7.9948702170289498e-03 -7.9279464811970633e-04 0.0000000000000000e+00  8.4711659343862707e-03 -8.1674359005738423e-04 0.0000000000000000e+00  8.8080614260389479e-03 -8.3619260266582548e-04 0.0000000000000000e+00  8.9304663007623679e-03 -8.5072208037226726e-04 0.0000000000000000e+00  8.7369424593497155e-03 -8.5997334029822958e-04 0.0000000000000000e+00  8.0926842299135597e-03 -8.6366419250346975e-04 0.0000000000000000e+00  6.8218219775120067e-03 -8.6160213530970262e-04 0.0000000000000000e+00  4.6996328314674310e-03 -8.5369211995503774e-04 0.0000000000000000e+00  1.4455796102934965e-03 -8.3993455925189726e-04 0.0000000000000000e+00  -3.2815722025910767e-03 -8.2040743803622502e-04 0.0000000000000000e+00  -9.8850975540246064e-03 -7.9522220110258429e-04 0.0000000000000000e+00  -1.8826705094465709e-02 -7.6442866661375882e-04 0.0000000000000000e+00  -3.0617072662086731e-02 -7.2779142247645701e-04 0.0000000000000000e+00  -4.5801118249324542e-02 -6.8419008907938503e-04 0.0000000000000000e+00  0.0000000000000000e+00 4.7162311118051325e-06 0.0000000000000000e+00  -6.1427680796695929e-06 1.1811605065987374e-06 0.0000000000000000e+00  -8.7471905152176149e-06 -8.7471905123191715e-06 0.0000000000000000e+00  -4.9029724916662733e-06 -2.4991469839360612e-05 0.0000000000000000e+00  8.5744920339290774e-06 -4.7521591392637912e-05 0.0000000000000000e+00  3.4848682696325208e-05 -7.6271215168504774e-05 0.0000000000000000e+00  7.7026556017026533e-05 -1.1113278481216628e-04 0.0000000000000000e+00  1.3814162882858354e-04 -1.5195773084696613e-04 0.0000000000000000e+00  2.2113830688149023e-04 -1.9855761012287524e-04 0.0000000000000000e+00  3.2885432228268752e-04 -2.5070411702378398e-04 0.0000000000000000e+00  4.6400068907803422e-04 -3.0812779677163787e-04 0.0000000000000000e+00  6.2913880619494653e-04 -3.7051586372598670e-04 0.0000000000000000e+00  8.2665407345917344e-04 -4.3750952187089008e-04 0.0000000000000000e+00  1.0587249588925858e-03 -5.0870107972742938e-04 0.0000000000000000e+00  1.3272858329512833e-03 -5.8363107695409125e-04 0.0000000000000000e+00  1.6339809523221664e-03 -6.6178560589851703e-04 0.0000000000000000e+00  1.9801055683657805e-03 -7.4259400363628090e-04 0.0000000000000000e+00  2.3665280316069871e-03 -8.2542709810269740e-04 0.0000000000000000e+00  2.7935836724254232e-03 -9.0959620840646834e-04 0.0000000000000000e+00  3.2609267863798214e-03 -9.9435312098346967e-04 0.0000000000000000e+00  3.7673207862947448e-03 -1.0788912877475320e-03 0.0000000000000000e+00  4.3103379865435170e-03 -1.1623485178327208e-03 0.0000000000000000e+00  4.8859290353760508e-03 -1.2438114589814044e-03 0.0000000000000000e+00  5.4878072888243533e-03 -1.3223221833506885e-03 0.0000000000000000e+00  6.1065753006705817e-03 -1.3968871991625958e-03 0.0000000000000000e+00  6.7284995617396788e-03 -1.4664891934982776e-03 0.0000000000000000e+00  7.3338171757611750e-03 -1.5301017581359089e-03 0.0000000000000000e+00  7.8944374630405892e-03 -1.5867072397764972e-03 0.0000000000000000e+00  8.3708880512599667e-03 -1.6353176662659925e-03 0.0000000000000000e+00  8.7083574531688149e-03 -1.6749984066732201e-03 0.0000000000000000e+00  8.8317166304700406e-03 -1.7048938060759589e-03 0.0000000000000000e+00  8.6394760827000379e-03 -1.7242534809855231e-03 0.0000000000000000e+00  7.9967694418478941e-03 -1.7324572644282687e-03 0.0000000000000000e+00  6.7276629310421068e-03 -1.7290359445000529e-03 0.0000000000000000e+00  4.6073739240127904e-03 -1.7136838990816842e-03 0.0000000000000000e+00  1.3553181975970582e-03 -1.6862582981137699e-03 0.0000000000000000e+00  -3.3697670724897170e-03 -1.6467571428570350e-03 0.0000000000000000e+00  -9.9711658829542294e-03 -1.5952637777914551e-03 0.0000000000000000e+00  -1.8910578275002428e-02 -1.5318374580428503e-03 0.0000000000000000e+00  -3.0698596326630825e-02 -1.4563245017166849e-03 0.0000000000000000e+00  -4.5879204908107395e-02 -1.3681162690211514e-03 0.0000000000000000e+00  0.0000000000000000e+00 1.4941462280533785e-05 0.0000000000000000e+00  -1.4248867633977888e-05 9.8489263559938541e-06 0.0000000000000000e+00  -2.4991469838772029e-05 -4.9029724884924315e-06 0.0000000000000000e+00  -2.9222478173207694e-05 -2.9222478171960583e-05 0.0000000000000000e+00  -2.3800355099477311e-05 -6.3019312584211893e-05 0.0000000000000000e+00  -5.5731231945633558e-06 -1.0616835802065287e-04 0.0000000000000000e+00  2.8566304305541720e-05 -1.5849529321408906e-04 0.0000000000000000e+00  8.1657979673816050e-05 -2.1977364527145642e-04 0.0000000000000000e+00  1.5665732337242594e-04 -2.8972247681366295e-04 0.0000000000000000e+00  2.5641697149347213e-04 -3.6800351319423320e-04 0.0000000000000000e+00  3.8366675851597422e-04 -4.5421771734258624e-04 0.0000000000000000e+00  5.4099106468059877e-04 -5.4790139071646152e-04 0.0000000000000000e+00  7.3080270072525388e-04 -6.4852193495867699e-04 0.0000000000000000e+00  9.5531217915250852e-04 -7.5547345907766726e-04 0.0000000000000000e+00  1.2164906431967020e-03 -8.6807244677767638e-04 0.0000000000000000e+00  1.5160238076400848e-03 -9.8555371923134930e-04 0.0000000000000000e+00  1.8552528617818836e-03 -1.1070669479030834e-03 0.0000000000000000e+00  2.2350961797994568e-03 -1.2316739953251662e-03 0.0000000000000000e+00  2.6559425893677153e-03 -1.3583473889694328e-03 0.0000000000000000e+00  3.1175024944621308e-03 -1.4859702637518137e-03 0.0000000000000000e+00  3.6185968798342302e-03 -1.6133381394843559e-03 0.0000000000000000e+00  4.1568556283836707e-03 -1.7391629282240081e-03 0.0000000000000000e+00  4.7282851377444526e-03 -1.8620795880201460e-03 0.0000000000000000e+00  5.3266505128321132e-03 -1.9806558467555910e-03 0.0000000000000000e+00  5.9425995162785128e-03 -2.0934054026357763e-03 0.0000000000000000e+00  6.5624344590192165e-03 -2.1988049528065706e-03 0.0000000000000000e+00  7.1664158306935788e-03 -2.2953152903552212e-03 0.0000000000000000e+00  7.7264608624623421e-03 -2.3814065243355186e-03 0.0000000000000000e+00  8.2030868955023425e-03 -2.4555871989140007e-03 0.0000000000000000e+00  8.5414519932749105e-03 -2.5164367061042314e-03 0.0000000000000000e+00  8.6663758451341246e-03 -2.5626399047278983e-03 0.0000000000000000e+00  8.4762980973876675e-03 -2.5930222951795804e-03 0.0000000000000000e+00  7.8362656192457296e-03 -2.6065834832158974e-03 0.0000000000000000e+00  6.5702483481210449e-03 -2.6025260043008283e-03 0.0000000000000000e+00  4.4533668532798524e-03 -2.5802758036577527e-03 0.0000000000000000e+00  1.2049508139219218e-03 -2.5394895680075332e-03 0.0000000000000000e+00  -3.5163245099945647e-03 -2.4800423552609266e-03 0.0000000000000000e+00  -1.0113762719564568e-02 -2.4019864954162597e-03 0.0000000000000000e+00  -1.9049009873750689e-02 -2.3054708018170312e-03 0.0000000000000000e+00  -3.0832464558336770e-02 -2.1906110964696299e-03 0.0000000000000000e+00  -4.6007637588715046e-02 -2.0573054940004436e-03 0.0000000000000000e+00  0.0000000000000000e+00 3.4838427844482567e-05 0.0000000000000000e+00  -2.5480149070070998e-05 2.8148525758562763e-05 0.0000000000000000e+00  -4.7521591393615477e-05 8.5744920355803529e-06 0.0000000000000000e+00  -6.3019312584122229e-05 -2.3800355097349985e-05 0.0000000000000000e+00  -6.8845255910544528e-05 -6.8845255910034506e-05 0.0000000000000000e+00  -6.1855639734971984e-05 -1.2638353364248389e-04 0.0000000000000000e+00  -3.8942072574459972e-05 -1.9617873448409331e-04 0.0000000000000000e+00  2.9434003359671775e-06 -2.7792913506980967e-04 0.0000000000000000e+00  6.6769733487622877e-05 -3.7126351295470268e-04 0.0000000000000000e+00  1.5540868276387368e-04 -4.7573652737840569e-04 0.0000000000000000e+00  2.7161501723736248e-04 -5.9082348151546973e-04 0.0000000000000000e+00  4.1800417343729494e-04 -7.1591458637019513e-04 0.0000000000000000e+00  5.9702643434945599e-04 -8.5030891334016341e-04 0.0000000000000000e+00  8.1093641924885325e-04 -9.9320824744521773e-04 0.0000000000000000e+00  1.0617561043264434e-03 -1.1437110830607366e-03 0.0000000000000000e+00  1.3512286837614703e-03 -1.3008070406126447e-03 0.0000000000000000e+00  1.6807591795695096e-03 -1.4633720226933534e-03 0.0000000000000000e+00  2.0513356038621344e-03 -1.6301644694668310e-03 0.0000000000000000e+00  2.4634213817488000e-03 -1.7998231157507706e-03 0.0000000000000000e+00  2.9168052874637869e-03 -1.9708666936728708e-03 0.0000000000000000e+00  3.4103888787303761e-03 -2.1416960628260037e-03 0.0000000000000000e+00  3.9418828227695372e-03 -2.3105992803555183e-03 0.0000000000000000e+00  4.5073720735137393e-03 -2.4757601396502710e-03 0.0000000000000000e+00  5.1006951707483258e-03 -2.6352706992950861e-03 0.0000000000000000e+00  5.7125648721242182e-03 -2.7871482810960004e-03 0.0000000000000000e+00  6.3293363828143259e-03 -2.9293573230457508e-03 0.0000000000000000e+00  6.9313071408677717e-03 -3.0598363118711632e-03 0.0000000000000000e+00  7.4904116080915985e-03 -3.1765297765851560e-03 0.0000000000000000e+00  7.9671613126579867e-03 -3.2774249893911802e-03 0.0000000000000000e+00  8.3066830718568907e-03 -3.3605925985437371e-03 0.0000000000000000e+00  8.4337390217223279e-03 -3.4242299340006611e-03 0.0000000000000000e+00  8.2466861880127699e-03 -3.4667052235260328e-03 0.0000000000000000e+00  7.6104676091866934e-03 -3.4866004827348142e-03 0.0000000000000000e+00  6.3489349317211894e-03 -3.4827504113144696e-03 0.0000000000000000e+00  4.2370855854783852e-03 -3.4542741677947492e-03 0.0000000000000000e+00  9.9413348660744132e-04 -3.4005962251314314e-03 0.0000000000000000e+00  -3.7213397754300975e-03 -3.3214514389578237e-03 0.0000000000000000e+00  -1.0312691701724150e-02 -3.2168681087880254e-03 0.0000000000000000e+00  -1.9241560387421239e-02 -3.0871218856102964e-03 0.0000000000000000e+00  -3.1018241665192681e-02 -2.9326531707133271e-03 0.0000000000000000e+00  -4.6185960684012019e-02 -2.7539387461143630e-03 0.0000000000000000e+00  0.0000000000000000e+00 6.7550171714255501e-05 0.0000000000000000e+00  -3.9827659264506407e-05 5.9250889544013174e-05 0.0000000000000000e+00  -7.6271215169673991e-05 3.4848682698092959e-05 0.0000000000000000e+00  -1.0616835802071959e-04 -5.5731231924294282e-06 0.0000000000000000e+00  -1.2638353364232904e-04 -6.1855639735710000e-05 0.0000000000000000e+00  -1.3377699406394070e-04 -1.3377699406580293e-04 0.0000000000000000e+00  -1.2523778432133238e-04 -2.2104382956025966e-04 0.0000000000000000e+00  -9.7708461909232929e-05 -3.2328440193073909e-04 0.0000000000000000e+00  -4.8203874896851952e-05 -4.4004267374554630e-04 0.0000000000000000e+00  2.6170888713497059e-05 -5.7077205562218783e-04 0.0000000000000000e+00  1.2820118504248829e-04 -7.1482848398411573e-04 0.0000000000000000e+00  2.6054097166175835e-04 -8.7146291127580626e-04 0.0000000000000000e+00  4.2568742191840923e-04 -1.0398134100256657e-03 0.0000000000000000e+00  6.2595072399360802e-04 -1.2188971467705042e-03 0.0000000000000000e+00  8.6341723690252061e-04 -1.4076025232271595e-03 0.0000000000000000e+00  1.1399032658825831e-03 -1.6046818263643632e-03 0.0000000000000000e+00  1.4568953162969961e-03 -1.8087447783891955e-03 0.0000000000000000e+00  1.8154705780074607e-03 -2.0182534309514410e-03 0.0000000000000000e+00  2.2161882953317075e-03 -2.2315189022259650e-03 0.0000000000000000e+00  2.6589382223169479e-03 -2.4467005079430240e-03 0.0000000000000000e+00  3.1427260992353294e-03 -2.6618078830460616e-03 0.0000000000000000e+00  3.6653675035218541e-03 -2.8747067240689622e-03 0.0000000000000000e+00  4.2230500117352672e-03 -3.0831287948802203e-03 0.0000000000000000e+00  4.8097089487759599e-03 -3.2846868195840475e-03 0.0000000000000000e+00  5.4161439848490331e-03 -3.4768948224501552e-03 0.0000000000000000e+00  6.0287829572533008e-03 -3.6571943513099819e-03 0.0000000000000000e+00  6.6279770707995235e-03 -3.8229868225724316e-03 0.0000000000000000e+00  7.1856912245123394e-03 -3.9716719432746151e-03 0.0000000000000000e+00  7.6624401207081548e-03 -4.1006917988584621e-03 0.0000000000000000e+00  8.0033235982361357e-03 -4.2075797624053675e-03 0.0000000000000000e+00  8.1330453950728843e-03 -4.2900129226658658e-03 0.0000000000000000e+00  7.9498736420024318e-03 -4.3458663036176955e-03 0.0000000000000000e+00  7.3186355415725633e-03 -4.3732668165656864e-03 0.0000000000000000e+00  6.0630463482881890e-03 -4.3706446632836866e-03 0.0000000000000000e+00  3.9579556158558429e-03 -4.3367797191080672e-03 0.0000000000000000e+00  7.2242918004636369e-04 -4.2708400797272080e-03 0.0000000000000000e+00  -3.9850868735341475e-03 -4.1724092519629967e-03 0.0000000000000000e+00  -1.0568059367589146e-02 -4.0414974576070484e-03 0.0000000000000000e+00  -1.9488194535968523e-02 -3.8785318752806567e-03 0.0000000000000000e+00  -3.1255790253284642e-02 -3.6843223565073240e-03 0.0000000000000000e+00  -4.6413931507243100e-02 -3.4600115411442078e-03 0.0000000000000000e+00  0.0000000000000000e+00 1.1616731206605354e-04 0.0000000000000000e+00  -5.7239127329312532e-05 1.0625736582858834e-04 0.0000000000000000e+00  -1.1113278481150302e-04 7.7026556019573351e-05 0.0000000000000000e+00  -1.5849529321274397e-04 2.8566304307510265e-05 0.0000000000000000e+00  -1.9617873448420789e-04 -3.8942072576531239e-05 0.0000000000000000e+00  -2.2104382956052404e-04 -1.2523778432054397e-04 0.0000000000000000e+00  -2.2997633576056717e-04 -2.2997633575851605e-04 0.0000000000000000e+00  -2.1990847589589742e-04 -3.5272221852623891e-04 0.0000000000000000e+00  -1.8783700519173872e-04 -4.9294156492324522e-04 0.0000000000000000e+00  -1.3084056019544517e-04 -6.4999425462927642e-04 0.0000000000000000e+00  -4.6098282319237580e-05 -8.2312525413781633e-04 0.0000000000000000e+00  6.9089027852590665e-05 -1.0114552580028065e-03 0.0000000000000000e+00  2.1727412122036843e-04 -1.2139708411204252e-03 0.0000000000000000e+00  4.0083353743371560e-04 -1.4295144077963748e-03 0.0000000000000000e+00  6.2193098465335790e-04 -1.6567742822566811e-03 0.0000000000000000e+00  8.8247106895296022e-04 -1.8942753434931579e-03 0.0000000000000000e+00  1.1840391744507941e-03 -2.1403706694927546e-03 0.0000000000000000e+00  1.5278211851904619e-03 -2.3932347211890635e-03 0.0000000000000000e+00  1.9144936409013591e-03 -2.6508586634375799e-03 0.0000000000000000e+00  2.3440704646887521e-03 -2.9110484836814203e-03 0.0000000000000000e+00  2.8156861423416718e-03 -3.1714266243054951e-03 0.0000000000000000e+00  3.3272866631248728e-03 -3.4294378834352195e-03 0.0000000000000000e+00  3.8751881372687483e-03 -3.6823603521186354e-03 0.0000000000000000e+00  4.4534483799364422e-03 -3.9273221309941448e-03 0.0000000000000000e+00  5.0529787865307681e-03 -4.1613244925840223e-03 0.0000000000000000e+00  5.6603030096857368e-03 -4.3812720122149203e-03 0.0000000000000000e+00  6.2558468125004842e-03 -4.5840099685515515e-03 0.0000000000000000e+00  6.8116231677837558e-03 -4.7663690088122074e-03 0.0000000000000000e+00  7.2881636869791240e-03 -4.9252166919342482e-03 0.0000000000000000e+00  7.6305503368254163e-03 -5.0575150930746481e-03 0.0000000000000000e+00  7.7634322093630588e-03 -5.1603832261538076e-03 0.0000000000000000e+00  7.5849861710230188e-03 -5.2311626862970280e-03 0.0000000000000000e+00  6.9599142214682372e-03 -5.2674846936396963e-03 0.0000000000000000e+00  5.7117777855128626e-03 -5.2673366462527172e-03 0.0000000000000000e+0