<?xml version="1.0"?>
<VTKFile type="UnstructuredGrid"  version="0.1"  >
<UnstructuredGrid>
<Piece  NumberOfPoints="1681" NumberOfCells="3200">
<Points>
<DataArray  type="Float64"  NumberOfComponents="3"  format="ascii">0 0 0  0.5 0 0  1 0 0  1.5 0 0  2 0 0  2.5 0 0  3 0 0  3.5 0 0  4 0 0  4.5 0 0  5 0 0  5.5 0 0  6 0 0  6.5 0 0  7 0 0  7.5 0 0  8 0 0  8.5 0 0  9 0 0  9.5 0 0  10 0 0  10.5 0 0  11 0 0  11.5 0 0  12 0 0  12.5 0 0  13 0 0  13.5 0 0  14 0 0  14.5 0 0  15 0 0  15.5 0 0  16 0 0  16.5 0 0  17 0 0  17.5 0 0  18 0 0  18.5 0 0  19 0 0  19.5 0 0  20 0 0  0 0.5 0  0.5 0.5 0  1 0.5 0  1.5 0.5 0  2 0.5 0  2.5 0.5 0  3 0.5 0  3.5 0.5 0  4 0.5 0  4.5 0.5 0  5 0.5 0  5.5 0.5 0  6 0.5 0  6.5 0.5 0  7 0.5 0  7.5 0.5 0  8 0.5 0  8.5 0.5 0  9 0.5 0  9.5 0.5 0  10 0.5 0  10.5 0.5 0  11 0.5 0  11.5 0.5 0  12 0.5 0  12.5 0.5 0  13 0.5 0  13.5 0.5 0  14 0.5 0  14.5 0.5 0  15 0.5 0  15.5 0.5 0  16 0.5 0  16.5 0.5 0  17 0.5 0  17.5 0.5 0  18 0.5 0  18.5 0.5 0  19 0.5 0  19.5 0.5 0  20 0.5 0  0 1 0  0.5 1 0  1 1 0  1.5 1 0  2 1 0  2.5 1 0  3 1 0  3.5 1 0  4 1 0  4.5 1 0  5 1 0  5.5 1 0  6 1 0  6.5 1 0  7 1 0  7.5 1 0  8 1 0  8.5 1 0  9 1 0  9.5 1 0  10 1 0  10.5 1 0  11 1 0  11.5 1 0  12 1 0  12.5 1 0  13 1 0  13.5 1 0  14 1 0  14.5 1 0  15 1 0  15.5 1 0  16 1 0  16.5 1 0  17 1 0  17.5 1 0  18 1 0  18.5 1 0  19 1 0  19.5 1 0  20 1 0  0 1.5 0  0.5 1.5 0  1 1.5 0  1.5 1.5 0  2 1.5 0  2.5 1.5 0  3 1.5 0  3.5 1.5 0  4 1.5 0  4.5 1.5 0  5 1.5 0  5.5 1.5 0  6 1.5 0  6.5 1.5 0  7 1.5 0  7.5 1.5 0  8 1.5 0  8.5 1.5 0  9 1.5 0  9.5 1.5 0  10 1.5 0  10.5 1.5 0  11 1.5 0  11.5 1.5 0  12 1.5 0  12.5 1.5 0  13 1.5 0  13.5 1.5 0  14 1.5 0  14.5 1.5 0  15 1.5 0  15.5 1.5 0  16 1.5 0  16.5 1.5 0  17 1.5 0  17.5 1.5 0  18 1.5 0  18.5 1.5 0  19 1.5 0  19.5 1.5 0  20 1.5 0  0 2 0  0.5 2 0  1 2 0  1.5 2 0  2 2 0  2.5 2 0  3 2 0  3.5 2 0  4 2 0  4.5 2 0  5 2 0  5.5 2 0  6 2 0  6.5 2 0  7 2 0  7.5 2 0  8 2 0  8.5 2 0  9 2 0  9.5 2 0  10 2 0  10.5 2 0  11 2 0  11.5 2 0  12 2 0  12.5 2 0  13 2 0  13.5 2 0  14 2 0  14.5 2 0  15 2 0  15.5 2 0  16 2 0  16.5 2 0  17 2 0  17.5 2 0  18 2 0  18.5 2 0  19 2 0  19.5 2 0  20 2 0  0 2.5 0  0.5 2.5 0  1 2.5 0  1.5 2.5 0  2 2.5 0  2.5 2.5 0  3 2.5 0  3.5 2.5 0  4 2.5 0  4.5 2.5 0  5 2.5 0  5.5 2.5 0  6 2.5 0  6.5 2.5 0  7 2.5 0  7.5 2.5 0  8 2.5 0  8.5 2.5 0  9 2.5 0  9.5 2.5 0  10 2.5 0  10.5 2.5 0  11 2.5 0  11.5 2.5 0  12 2.5 0  12.5 2.5 0  13 2.5 0  13.5 2.5 0  14 2.5 0  14.5 2.5 0  15 2.5 0  15.5 2.5 0  16 2.5 0  16.5 2.5 0  17 2.5 0  17.5 2.5 0  18 2.5 0  18.5 2.5 0  19 2.5 0  19.5 2.5 0  20 2.5 0  0 3 0  0.5 3 0  1 3 0  1.5 3 0  2 3 0  2.5 3 0  3 3 0  3.5 3 0  4 3 0  4.5 3 0  5 3 0  5.5 3 0  6 3 0  6.5 3 0  7 3 0  7.5 3 0  8 3 0  8.5 3 0  9 3 0  9.5 3 0  10 3 0  10.5 3 0  11 3 0  11.5 3 0  12 3 0  12.5 3 0  13 3 0  13.5 3 0  14 3 0  14.5 3 0  15 3 0  15.5 3 0  16 3 0  16.5 3 0  17 3 0  17.5 3 0  18 3 0  18.5 3 0  19 3 0  19.5 3 0  20 3 0  0 3.5 0  0.5 3.5 0  1 3.5 0  1.5 3.5 0  2 3.5 0  2.5 3.5 0  3 3.5 0  3.5 3.5 0  4 3.5 0  4.5 3.5 0  5 3.5 0  5.5 3.5 0  6 3.5 0  6.5 3.5 0  7 3.5 0  7.5 3.5 0  8 3.5 0  8.5 3.5 0  9 3.5 0  9.5 3.5 0  10 3.5 0  10.5 3.5 0  11 3.5 0  11.5 3.5 0  12 3.5 0  12.5 3.5 0  13 3.5 0  13.5 3.5 0  14 3.5 0  14.5 3.5 0  15 3.5 0  15.5 3.5 0  16 3.5 0  16.5 3.5 0  17 3.5 0  17.5 3.5 0  18 3.5 0  18.5 3.5 0  19 3.5 0  19.5 3.5 0  20 3.5 0  0 4 0  0.5 4 0  1 4 0  1.5 4 0  2 4 0  2.5 4 0  3 4 0  3.5 4 0  4 4 0  4.5 4 0  5 4 0  5.5 4 0  6 4 0  6.5 4 0  7 4 0  7.5 4 0  8 4 0  8.5 4 0  9 4 0  9.5 4 0  10 4 0  10.5 4 0  11 4 0  11.5 4 0  12 4 0  12.5 4 0  13 4 0  13.5 4 0  14 4 0  14.5 4 0  15 4 0  15.5 4 0  16 4 0  16.5 4 0  17 4 0  17.5 4 0  18 4 0  18.5 4 0  19 4 0  19.5 4 0  20 4 0  0 4.5 0  0.5 4.5 0  1 4.5 0  1.5 4.5 0  2 4.5 0  2.5 4.5 0  3 4.5 0  3.5 4.5 0  4 4.5 0  4.5 4.5 0  5 4.5 0  5.5 4.5 0  6 4.5 0  6.5 4.5 0  7 4.5 0  7.5 4.5 0  8 4.5 0  8.5 4.5 0  9 4.5 0  9.5 4.5 0  10 4.5 0  10.5 4.5 0  11 4.5 0  11.5 4.5 0  12 4.5 0  12.5 4.5 0  13 4.5 0  13.5 4.5 0  14 4.5 0  14.5 4.5 0  15 4.5 0  15.5 4.5 0  16 4.5 0  16.5 4.5 0  17 4.5 0  17.5 4.5 0  18 4.5 0  18.5 4.5 0  19 4.5 0  19.5 4.5 0  20 4.5 0  0 5 0  0.5 5 0  1 5 0  1.5 5 0  2 5 0  2.5 5 0  3 5 0  3.5 5 0  4 5 0  4.5 5 0  5 5 0  5.5 5 0  6 5 0  6.5 5 0  7 5 0  7.5 5 0  8 5 0  8.5 5 0  9 5 0  9.5 5 0  10 5 0  10.5 5 0  11 5 0  11.5 5 0  12 5 0  12.5 5 0  13 5 0  13.5 5 0  14 5 0  14.5 5 0  15 5 0  15.5 5 0  16 5 0  16.5 5 0  17 5 0  17.5 5 0  18 5 0  18.5 5 0  19 5 0  19.5 5 0  20 5 0  0 5.5 0  0.5 5.5 0  1 5.5 0  1.5 5.5 0  2 5.5 0  2.5 5.5 0  3 5.5 0  3.5 5.5 0  4 5.5 0  4.5 5.5 0  5 5.5 0  5.5 5.5 0  6 5.5 0  6.5 5.5 0  7 5.5 0  7.5 5.5 0  8 5.5 0  8.5 5.5 0  9 5.5 0  9.5 5.5 0  10 5.5 0  10.5 5.5 0  11 5.5 0  11.5 5.5 0  12 5.5 0  12.5 5.5 0  13 5.5 0  13.5 5.5 0  14 5.5 0  14.5 5.5 0  15 5.5 0  15.5 5.5 0  16 5.5 0  16.5 5.5 0  17 5.5 0  17.5 5.5 0  18 5.5 0  18.5 5.5 0  19 5.5 0  19.5 5.5 0  20 5.5 0  0 6 0  0.5 6 0  1 6 0  1.5 6 0  2 6 0  2.5 6 0  3 6 0  3.5 6 0  4 6 0  4.5 6 0  5 6 0  5.5 6 0  6 6 0  6.5 6 0  7 6 0  7.5 6 0  8 6 0  8.5 6 0  9 6 0  9.5 6 0  10 6 0  10.5 6 0  11 6 0  11.5 6 0  12 6 0  12.5 6 0  13 6 0  13.5 6 0  14 6 0  14.5 6 0  15 6 0  15.5 6 0  16 6 0  16.5 6 0  17 6 0  17.5 6 0  18 6 0  18.5 6 0  19 6 0  19.5 6 0  20 6 0  0 6.5 0  0.5 6.5 0  1 6.5 0  1.5 6.5 0  2 6.5 0  2.5 6.5 0  3 6.5 0  3.5 6.5 0  4 6.5 0  4.5 6.5 0  5 6.5 0  5.5 6.5 0  6 6.5 0  6.5 6.5 0  7 6.5 0  7.5 6.5 0  8 6.5 0  8.5 6.5 0  9 6.5 0  9.5 6.5 0  10 6.5 0  10.5 6.5 0  11 6.5 0  11.5 6.5 0  12 6.5 0  12.5 6.5 0  13 6.5 0  13.5 6.5 0  14 6.5 0  14.5 6.5 0  15 6.5 0  15.5 6.5 0  16 6.5 0  16.5 6.5 0  17 6.5 0  17.5 6.5 0  18 6.5 0  18.5 6.5 0  19 6.5 0  19.5 6.5 0  20 6.5 0  0 7 0  0.5 7 0  1 7 0  1.5 7 0  2 7 0  2.5 7 0  3 7 0  3.5 7 0  4 7 0  4.5 7 0  5 7 0  5.5 7 0  6 7 0  6.5 7 0  7 7 0  7.5 7 0  8 7 0  8.5 7 0  9 7 0  9.5 7 0  10 7 0  10.5 7 0  11 7 0  11.5 7 0  12 7 0  12.5 7 0  13 7 0  13.5 7 0  14 7 0  14.5 7 0  15 7 0  15.5 7 0  16 7 0  16.5 7 0  17 7 0  17.5 7 0  18 7 0  18.5 7 0  19 7 0  19.5 7 0  20 7 0  0 7.5 0  0.5 7.5 0  1 7.5 0  1.5 7.5 0  2 7.5 0  2.5 7.5 0  3 7.5 0  3.5 7.5 0  4 7.5 0  4.5 7.5 0  5 7.5 0  5.5 7.5 0  6 7.5 0  6.5 7.5 0  7 7.5 0  7.5 7.5 0  8 7.5 0  8.5 7.5 0  9 7.5 0  9.5 7.5 0  10 7.5 0  10.5 7.5 0  11 7.5 0  11.5 7.5 0  12 7.5 0  12.5 7.5 0  13 7.5 0  13.5 7.5 0  14 7.5 0  14.5 7.5 0  15 7.5 0  15.5 7.5 0  16 7.5 0  16.5 7.5 0  17 7.5 0  17.5 7.5 0  18 7.5 0  18.5 7.5 0  19 7.5 0  19.5 7.5 0  20 7.5 0  0 8 0  0.5 8 0  1 8 0  1.5 8 0  2 8 0  2.5 8 0  3 8 0  3.5 8 0  4 8 0  4.5 8 0  5 8 0  5.5 8 0  6 8 0  6.5 8 0  7 8 0  7.5 8 0  8 8 0  8.5 8 0  9 8 0  9.5 8 0  10 8 0  10.5 8 0  11 8 0  11.5 8 0  12 8 0  12.5 8 0  13 8 0  13.5 8 0  14 8 0  14.5 8 0  15 8 0  15.5 8 0  16 8 0  16.5 8 0  17 8 0  17.5 8 0  18 8 0  18.5 8 0  19 8 0  19.5 8 0  20 8 0  0 8.5 0  0.5 8.5 0  1 8.5 0  1.5 8.5 0  2 8.5 0  2.5 8.5 0  3 8.5 0  3.5 8.5 0  4 8.5 0  4.5 8.5 0  5 8.5 0  5.5 8.5 0  6 8.5 0  6.5 8.5 0  7 8.5 0  7.5 8.5 0  8 8.5 0  8.5 8.5 0  9 8.5 0  9.5 8.5 0  10 8.5 0  10.5 8.5 0  11 8.5 0  11.5 8.5 0  12 8.5 0  12.5 8.5 0  13 8.5 0  13.5 8.5 0  14 8.5 0  14.5 8.5 0  15 8.5 0  15.5 8.5 0  16 8.5 0  16.5 8.5 0  17 8.5 0  17.5 8.5 0  18 8.5 0  18.5 8.5 0  19 8.5 0  19.5 8.5 0  20 8.5 0  0 9 0  0.5 9 0  1 9 0  1.5 9 0  2 9 0  2.5 9 0  3 9 0  3.5 9 0  4 9 0  4.5 9 0  5 9 0  5.5 9 0  6 9 0  6.5 9 0  7 9 0  7.5 9 0  8 9 0  8.5 9 0  9 9 0  9.5 9 0  10 9 0  10.5 9 0  11 9 0  11.5 9 0  12 9 0  12.5 9 0  13 9 0  13.5 9 0  14 9 0  14.5 9 0  15 9 0  15.5 9 0  16 9 0  16.5 9 0  17 9 0  17.5 9 0  18 9 0  18.5 9 0  19 9 0  19.5 9 0  20 9 0  0 9.5 0  0.5 9.5 0  1 9.5 0  1.5 9.5 0  2 9.5 0  2.5 9.5 0  3 9.5 0  3.5 9.5 0  4 9.5 0  4.5 9.5 0  5 9.5 0  5.5 9.5 0  6 9.5 0  6.5 9.5 0  7 9.5 0  7.5 9.5 0  8 9.5 0  8.5 9.5 0  9 9.5 0  9.5 9.5 0  10 9.5 0  10.5 9.5 0  11 9.5 0  11.5 9.5 0  12 9.5 0  12.5 9.5 0  13 9.5 0  13.5 9.5 0  14 9.5 0  14.5 9.5 0  15 9.5 0  15.5 9.5 0  16 9.5 0  16.5 9.5 0  17 9.5 0  17.5 9.5 0  18 9.5 0  18.5 9.5 0  19 9.5 0  19.5 9.5 0  20 9.5 0  0 10 0  0.5 10 0  1 10 0  1.5 10 0  2 10 0  2.5 10 0  3 10 0  3.5 10 0  4 10 0  4.5 10 0  5 10 0  5.5 10 0  6 10 0  6.5 10 0  7 10 0  7.5 10 0  8 10 0  8.5 10 0  9 10 0  9.5 10 0  10 10 0  10.5 10 0  11 10 0  11.5 10 0  12 10 0  12.5 10 0  13 10 0  13.5 10 0  14 10 0  14.5 10 0  15 10 0  15.5 10 0  16 10 0  16.5 10 0  17 10 0  17.5 10 0  18 10 0  18.5 10 0  19 10 0  19.5 10 0  20 10 0  0 10.5 0  0.5 10.5 0  1 10.5 0  1.5 10.5 0  2 10.5 0  2.5 10.5 0  3 10.5 0  3.5 10.5 0  4 10.5 0  4.5 10.5 0  5 10.5 0  5.5 10.5 0  6 10.5 0  6.5 10.5 0  7 10.5 0  7.5 10.5 0  8 10.5 0  8.5 10.5 0  9 10.5 0  9.5 10.5 0  10 10.5 0  10.5 10.5 0  11 10.5 0  11.5 10.5 0  12 10.5 0  12.5 10.5 0  13 10.5 0  13.5 10.5 0  14 10.5 0  14.5 10.5 0  15 10.5 0  15.5 10.5 0  16 10.5 0  16.5 10.5 0  17 10.5 0  17.5 10.5 0  18 10.5 0  18.5 10.5 0  19 10.5 0  19.5 10.5 0  20 10.5 0  0 11 0  0.5 11 0  1 11 0  1.5 11 0  2 11 0  2.5 11 0  3 11 0  3.5 11 0  4 11 0  4.5 11 0  5 11 0  5.5 11 0  6 11 0  6.5 11 0  7 11 0  7.5 11 0  8 11 0  8.5 11 0  9 11 0  9.5 11 0  10 11 0  10.5 11 0  11 11 0  11.5 11 0  12 11 0  12.5 11 0  13 11 0  13.5 11 0  14 11 0  14.5 11 0  15 11 0  15.5 11 0  16 11 0  16.5 11 0  17 11 0  17.5 11 0  18 11 0  18.5 11 0  19 11 0  19.5 11 0  20 11 0  0 11.5 0  0.5 11.5 0  1 11.5 0  1.5 11.5 0  2 11.5 0  2.5 11.5 0  3 11.5 0  3.5 11.5 0  4 11.5 0  4.5 11.5 0  5 11.5 0  5.5 11.5 0  6 11.5 0  6.5 11.5 0  7 11.5 0  7.5 11.5 0  8 11.5 0  8.5 11.5 0  9 11.5 0  9.5 11.5 0  10 11.5 0  10.5 11.5 0  11 11.5 0  11.5 11.5 0  12 11.5 0  12.5 11.5 0  13 11.5 0  13.5 11.5 0  14 11.5 0  14.5 11.5 0  15 11.5 0  15.5 11.5 0  16 11.5 0  16.5 11.5 0  17 11.5 0  17.5 11.5 0  18 11.5 0  18.5 11.5 0  19 11.5 0  19.5 11.5 0  20 11.5 0  0 12 0  0.5 12 0  1 12 0  1.5 12 0  2 12 0  2.5 12 0  3 12 0  3.5 12 0  4 12 0  4.5 12 0  5 12 0  5.5 12 0  6 12 0  6.5 12 0  7 12 0  7.5 12 0  8 12 0  8.5 12 0  9 12 0  9.5 12 0  10 12 0  10.5 12 0  11 12 0  11.5 12 0  12 12 0  12.5 12 0  13 12 0  13.5 12 0  14 12 0  14.5 12 0  
[...]
<PointData  Vectors="f_5623-0"> 
<DataArray  type="Float64"  Name="f_5623-0"  NumberOfComponents="3" format="ascii">0.0000000000000000e+00 0.0000000000000000e+00 0.0000000000000000e+00  1.0743191006691626e-07 0.0000000000000000e+00 0.0000000000000000e+00  6.0681153685329557e-07 0.0000000000000000e+00 0.0000000000000000e+00  1.9637291566541028e-06 0.0000000000000000e+00 0.0000000000000000e+00  4.6009702336306486e-06 0.0000000000000000e+00 0.0000000000000000e+00  8.9351300097779254e-06 0.0000000000000000e+00 0.0000000000000000e+00  1.5376099091669914e-05 0.0000000000000000e+00 0.0000000000000000e+00  2.4324528618110642e-05 0.0000000000000000e+00 0.0000000000000000e+00  3.6169370106985809e-05 0.0000000000000000e+00 0.0000000000000000e+00  5.1285399492064511e-05 0.0000000000000000e+00 0.0000000000000000e+00  7.0030621373473310e-05 0.0000000000000000e+00 0.0000000000000000e+00  9.2743504625467555e-05 0.0000000000000000e+00 0.0000000000000000e+00  1.1974002726850843e-04 0.0000000000000000e+00 0.0000000000000000e+00  1.5131052215331412e-04 0.0000000000000000e+00 0.0000000000000000e+00  1.8771632405134453e-04 0.0000000000000000e+00 0.0000000000000000e+00  2.2918622548722474e-04 0.0000000000000000e+00 0.0000000000000000e+00  2.7591275281441292e-04 0.0000000000000000e+00 0.0000000000000000e+00  3.2804827328470417e-04 0.0000000000000000e+00 0.0000000000000000e+00  3.8570093336139614e-04 0.0000000000000000e+00 0.0000000000000000e+00  4.4893039868677202e-04 0.0000000000000000e+00 0.0000000000000000e+00  5.1774329913752799e-04 0.0000000000000000e+00 0.0000000000000000e+00  5.9208814448661337e-04 0.0000000000000000e+00 0.0000000000000000e+00  6.7184920363442906e-04 0.0000000000000000e+00 0.0000000000000000e+00  7.5683831336564411e-04 0.0000000000000000e+00 0.0000000000000000e+00  8.4678257481372898e-04 0.0000000000000000e+00 0.0000000000000000e+00  9.4130398203001958e-04 0.0000000000000000e+00 0.0000000000000000e+00  1.0398834093623250e-03 0.0000000000000000e+00 0.0000000000000000e+00  1.1417945739847508e-03 0.0000000000000000e+00 0.0000000000000000e+00  1.2459808319516036e-03 0.0000000000000000e+00 0.0000000000000000e+00  1.3508239195078378e-03 0.0000000000000000e+00 0.0000000000000000e+00  1.4537099544954979e-03 0.0000000000000000e+00 0.0000000000000000e+00  1.5502183032282486e-03 0.0000000000000000e+00 0.0000000000000000e+00  1.6326166889202647e-03 0.0000000000000000e+00 0.0000000000000000e+00  1.6870997125566160e-03 0.0000000000000000e+00 0.0000000000000000e+00  1.6888020305970133e-03 0.0000000000000000e+00 0.0000000000000000e+00  1.5930024522273524e-03 0.0000000000000000e+00 0.0000000000000000e+00  1.3201490431650820e-03 0.0000000000000000e+00 0.0000000000000000e+00  7.3172287518529649e-04 0.0000000000000000e+00 0.0000000000000000e+00  -4.0540463429296710e-04 0.0000000000000000e+00 0.0000000000000000e+00  -2.4645193329817685e-03 0.0000000000000000e+00 0.0000000000000000e+00  -6.0055584537476014e-03 0.0000000000000000e+00 0.0000000000000000e+00  0.0000000000000000e+00 1.0743190865523752e-07 0.0000000000000000e+00  -1.4941809133172521e-07 -1.4941809262838932e-07 0.0000000000000000e+00  1.4670346549602327e-07 -8.0837527406146669e-07 0.0000000000000000e+00  1.2937968244733698e-06 -1.8788245981723352e-06 0.0000000000000000e+00  3.7181390488114201e-06 -3.3665423094174500e-06 0.0000000000000000e+00  7.8387978533813071e-06 -5.2683487843897215e-06 0.0000000000000000e+00  1.4066483436114002e-05 -7.5764509968683459e-06 0.0000000000000000e+00  2.2802207763829977e-05 -1.0280216662956161e-05 0.0000000000000000e+00  3.4435243157907957e-05 -1.3366584885043691e-05 0.0000000000000000e+00  4.9340764408319844e-05 -1.6820030467137502e-05 0.0000000000000000e+00  6.7877285498640721e-05 -2.0622399537125545e-05 0.0000000000000000e+00  9.0383905343492142e-05 -2.4752709860516931e-05 0.0000000000000000e+00  1.1717735664185317e-04 -2.9186943541721115e-05 0.0000000000000000e+00  1.4854885286154942e-04 -3.3897843327698667e-05 0.0000000000000000e+00  1.8476073410396643e-04 -3.8854720533289803e-05 0.0000000000000000e+00  2.2604291871122296e-04 -4.4023282901437894e-05 0.0000000000000000e+00  2.7258917159050055e-04 -4.9365491372561386e-05 0.0000000000000000e+00  3.2455319971956239e-04 -5.4839455172710336e-05 0.0000000000000000e+00  3.8204457516644849e-04 -6.0399374564361029e-05 0.0000000000000000e+00  4.4512445656149085e-04 -6.5995539408097664e-05 0.0000000000000000e+00  5.1380101381800732e-04 -7.1574389519052608e-05 0.0000000000000000e+00  5.8802432398769933e-04 -7.7078638157213281e-05 0.0000000000000000e+00  6.6768023509432793e-04 -8.2447453511477495e-05 0.0000000000000000e+00  7.5258216986385617e-04 -8.7616682123901576e-05 0.0000000000000000e+00  8.4245883603686618e-04 -9.2519083529583125e-05 0.0000000000000000e+00  9.3693389891494935e-04 -9.7084524968521461e-05 0.0000000000000000e+00  1.0354900553588477e-03 -1.0124006093159736e-04 0.0000000000000000e+00  1.1374031343984324e-03 -1.0490979902398339e-04 0.0000000000000000e+00  1.2416190731463375e-03 -1.0801444834519303e-04 0.0000000000000000e+00  1.3465228166637151e-03 -1.1047049869342796e-04 0.0000000000000000e+00  1.4495042637194366e-03 -1.1218917728997062e-04 0.0000000000000000e+00  1.5461463904066675e-03 -1.1307584803594081e-04 0.0000000000000000e+00  1.6287179155995181e-03 -1.1303165574456310e-04 0.0000000000000000e+00  1.6834057942912825e-03 -1.1196136575839408e-04 0.0000000000000000e+00  1.6853159444517097e-03 -1.0979464655971077e-04 0.0000000000000000e+00  1.5896560423863523e-03 -1.0653109810445690e-04 0.0000000000000000e+00  1.3167340997875805e-03 -1.0231584953797702e-04 0.0000000000000000e+00  7.2781291650342056e-04 -9.7524643681858584e-05 0.0000000000000000e+00  -4.1047227279652788e-04 -9.2744755866816300e-05 0.0000000000000000e+00  -2.4714314326909660e-03 -8.8288762559768049e-05 0.0000000000000000e+00  -6.0126535295595201e-03 -8.2172576807054321e-05 0.0000000000000000e+00  0.0000000000000000e+00 6.0681153769329952e-07 0.0000000000000000e+00  -8.0837527507755725e-07 1.4670346584483617e-07 0.0000000000000000e+00  -1.1574835469995463e-06 -1.1574835459736702e-06 0.0000000000000000e+00  -6.5121624773560880e-07 -3.3023943417210157e-06 0.0000000000000000e+00  1.1324227831553707e-06 -6.2838533887787900e-06 0.0000000000000000e+00  4.6121066794497868e-06 -1.0091902299732417e-05 0.0000000000000000e+00  1.0199236915107929e-05 -1.4711211642961286e-05 0.0000000000000000e+00  1.8295721586220772e-05 -2.0121335885676717e-05 0.0000000000000000e+00  2.9291866724626356e-05 -2.6296814456431727e-05 0.0000000000000000e+00  4.3564093859925588e-05 -3.3207071974246864e-05 0.0000000000000000e+00  6.1472445851541637e-05 -4.0816165430628204e-05 0.0000000000000000e+00  8.3357878830413886e-05 -4.9082441889160397e-05 0.0000000000000000e+00  1.0953933913094549e-04 -5.7958153731338860e-05 0.0000000000000000e+00  1.4031062472408390e-04 -6.7389063497149814e-05 0.0000000000000000e+00  1.7593703383876386e-04 -7.7314062352952837e-05 0.0000000000000000e+00  2.1665180793242338e-04 -8.7664823343500670e-05 0.0000000000000000e+00  2.6265237958986995e-04 -9.8365510064657690e-05 0.0000000000000000e+00  3.1409643548228639e-04 -1.0933256141455531e-04 0.0000000000000000e+00  3.7109779483011609e-04 -1.2047457286007993e-04 0.0000000000000000e+00  4.3372207552853855e-04 -1.3169229303661124e-04 0.0000000000000000e+00  5.0198205551361702e-04 -1.4287875120232797e-04 0.0000000000000000e+00  5.7583250212631175e-04 -1.5391952473823821e-04 0.0000000000000000e+00  6.5516397432482454e-04 -1.6469314637206252e-04 0.0000000000000000e+00  7.3979458087523561e-04 -1.7507163680108406e-04 0.0000000000000000e+00  8.2945767609751307e-04 -1.8492113006454233e-04 0.0000000000000000e+00  9.2378156501059878e-04 -1.9410253771177035e-04 0.0000000000000000e+00  1.0222536684031554e-03 -2.0247217893092415e-04 0.0000000000000000e+00  1.1241547623589000e-03 -2.0988230096119465e-04 0.0000000000000000e+00  1.2284360702498524e-03 -2.1618145844188954e-04 0.0000000000000000e+00  1.3334880464224710e-03 -2.2121487357861769e-04 0.0000000000000000e+00  1.4367054765843132e-03 -2.2482527389838678e-04 0.0000000000000000e+00  1.5336729949453737e-03 -2.2685547585647500e-04 0.0000000000000000e+00  1.6166514894199364e-03 -2.2715535141142965e-04 0.0000000000000000e+00  1.6717977490864260e-03 -2.2559778991327744e-04 0.0000000000000000e+00  1.6741425764645395e-03 -2.2210999554389831e-04 0.0000000000000000e+00  1.5787416211043754e-03 -2.1672464085410444e-04 0.0000000000000000e+00  1.3056474888449880e-03 -2.0964157506941125e-04 0.0000000000000000e+00  7.1579405629527330e-04 -2.0124912077904087e-04 0.0000000000000000e+00  -4.2438245671768912e-04 -1.9196601398155158e-04 0.0000000000000000e+00  -2.4876472453283821e-03 -1.8163578184145213e-04 0.0000000000000000e+00  -6.0286350135110777e-03 -1.6817057031979444e-04 0.0000000000000000e+00  0.0000000000000000e+00 1.9637291564802451e-06 0.0000000000000000e+00  -1.8788245979104966e-06 1.2937968257209409e-06 0.0000000000000000e+00  -3.3023943409024892e-06 -6.5121625018798592e-07 0.0000000000000000e+00  -3.8654394538641533e-06 -3.8654394559234658e-06 0.0000000000000000e+00  -3.1496359229146113e-06 -8.3382284537339225e-06 0.0000000000000000e+00  -7.3700733329618743e-07 -1.4052641369155897e-05 0.0000000000000000e+00  3.7841990271454636e-06 -2.0984896330598601e-05 0.0000000000000000e+00  1.0816868138008852e-05 -2.9104328581600271e-05 0.0000000000000000e+00  2.0752784857415557e-05 -3.8373159841625213e-05 0.0000000000000000e+00  3.3970338953967394e-05 -4.8746109527152725e-05 0.0000000000000000e+00  5.0832063341943714e-05 -6.0169906340587094e-05 0.0000000000000000e+00  7.1681967845885637e-05 -7.2582734363032682e-05 0.0000000000000000e+00  9.6842651605390432e-05 -8.5913641442640583e-05 0.0000000000000000e+00  1.2661218698653765e-04 -1.0008193765187218e-04 0.0000000000000000e+00  1.6126077442550437e-04 -1.1499661263007968e-04 0.0000000000000000e+00  2.0102717320719799e-04 -1.3055580192278631e-04 0.0000000000000000e+00  2.4611491711395956e-04 -1.4664633382571870e-04 0.0000000000000000e+00  2.9668832370775323e-04 -1.6314338943214019e-04 0.0000000000000000e+00  3.5286829727733653e-04 -1.7991030888560544e-04 0.0000000000000000e+00  4.1472789833173462e-04 -1.9679857596752355e-04 0.0000000000000000e+00  4.8228758978914816e-04 -2.1364800984487094e-04 0.0000000000000000e+00  5.5550993752070032e-04 -2.3028718687383238e-04 0.0000000000000000e+00  6.3429327774969430e-04 -2.4653410585661337e-04 0.0000000000000000e+00  7.1846334463208439e-04 -2.6219709725006107e-04 0.0000000000000000e+00  8.0776085060664407e-04 -2.7707596126265373e-04 0.0000000000000000e+00  9.0182109843355961e-04 -2.9096330540276491e-04 0.0000000000000000e+00  1.0001380667176664e-03 -3.0364604715642853e-04 0.0000000000000000e+00  1.1019985346877393e-03 -3.1490706961602314e-04 0.0000000000000000e+00  1.2063588879097709e-03 -3.2452710034535265e-04 0.0000000000000000e+00  1.3116131365501972e-03 -3.3228708199251517e-04 0.0000000000000000e+00  1.4151561618574266e-03 -3.3797169658875050e-04 0.0000000000000000e+00  1.5125652211747567e-03 -3.4137537281227236e-04 0.0000000000000000e+00  1.5960785841490001e-03 -3.4231302475758928e-04 0.0000000000000000e+00  1.6518019290690542e-03 -3.4063854473167116e-04 0.0000000000000000e+00  1.6546676623706916e-03 -3.3627335667836783e-04 0.0000000000000000e+00  1.5595678833123475e-03 -3.2924198672715308e-04 0.0000000000000000e+00  1.2863321877438503e-03 -3.1969636475276419e-04 0.0000000000000000e+00  6.9569234420044184e-04 -3.0788125078768861e-04 0.0000000000000000e+00  -4.4586266693674010e-04 -2.9395969233316453e-04 0.0000000000000000e+00  -2.5103475136036809e-03 -2.7763429514366414e-04 0.0000000000000000e+00  -6.0504460351988136e-03 -2.5772857333938843e-04 0.0000000000000000e+00  0.0000000000000000e+00 4.6009702327167238e-06 0.0000000000000000e+00  -3.3665423091819786e-06 3.7181390485450193e-06 0.0000000000000000e+00  -6.2838533857928744e-06 1.1324227806305610e-06 0.0000000000000000e+00  -8.3382284520571852e-06 -3.1496359245254753e-06 0.0000000000000000e+00  -9.1125293393176113e-06 -9.1125293411303584e-06 0.0000000000000000e+00  -8.1892222024270708e-06 -1.6732953173806928e-05 0.0000000000000000e+00  -5.1560383142064644e-06 -2.5979175016856140e-05 0.0000000000000000e+00  3.9112993117022313e-07 -3.6810708897460354e-05 0.0000000000000000e+00  8.8459572366726915e-06 -4.9177867101625751e-05 0.0000000000000000e+00  2.0589429731658019e-05 -6.3021162451473855e-05 0.0000000000000000e+00  3.5987438052721578e-05 -7.8270597066931684e-05 0.0000000000000000e+00  5.5388164520696456e-05 -9.4844876420221609e-05 0.0000000000000000e+00  7.9119239672023004e-05 -1.1265058249324773e-04 0.0000000000000000e+00  1.0748465510087214e-04 -1.3158133846496729e-04 0.0000000000000000e+00  1.4076142714433918e-04 -1.5151699932601761e-04 0.0000000000000000e+00  1.7919601220157347e-04 -1.7232290620840664e-04 0.0000000000000000e+00  2.2300047893509541e-04 -1.9384924584022739e-04 0.0000000000000000e+00  2.7234844327242089e-04 -2.1593055970510608e-04 0.0000000000000000e+00  3.2737076412953033e-04 -2.3838544961646667e-04 0.0000000000000000e+00  3.8815097217416813e-04 -2.6101652697552863e-04 0.0000000000000000e+00  4.5472034272610632e-04 -2.8361065116932100e-04 0.0000000000000000e+00  5.2705239366885128e-04 -3.0593949822545246e-04 0.0000000000000000e+00  6.0505632594003221e-04 -3.2776049317519563e-04 0.0000000000000000e+00  6.8856840614039440e-04 -3.4881812940978978e-04 0.0000000000000000e+00  7.7733928817512574e-04 -3.6884568713017142e-04 0.0000000000000000e+00  8.7101334878261999e-04 -3.8756735527969478e-04 0.0000000000000000e+00  9.6909245331096598e-04 -4.0470076584736537e-04 0.0000000000000000e+00  1.0708696464502617e-03 -4.1995998185766545e-04 0.0000000000000000e+00  1.1753052531995676e-03 -4.3305906569446432e-04 0.0000000000000000e+00  1.2807936217347046e-03 -4.4371652569932324e-04 0.0000000000000000e+00  1.3847240165657975e-03 -4.5166122440987047e-04 0.0000000000000000e+00  1.4826579622594688e-03 -4.5664071309890004e-04 0.0000000000000000e+00  1.5668011462342134e-03 -4.5843326699227904e-04 0.0000000000000000e+00  1.6232004474120748e-03 -4.5686462206927708e-04 0.0000000000000000e+00  1.6266937660174719e-03 -4.5182844841020256e-04 0.0000000000000000e+00  1.5320420433662734e-03 -4.4330421424877708e-04 0.0000000000000000e+00  1.2589340137506395e-03 -4.3135617440613172e-04 0.0000000000000000e+00  6.6803563129319338e-04 -4.1608668994544623e-04 0.0000000000000000e+00  -4.7399220160608877e-04 -3.9752438241737556e-04 0.0000000000000000e+00  -2.5385680110101738e-03 -3.7549518621374407e-04 0.0000000000000000e+00  -6.0774014219998089e-03 -3.4971012393674860e-04 0.0000000000000000e+00  0.0000000000000000e+00 8.9351300075076517e-06 0.0000000000000000e+00  -5.2683487855873727e-06 7.8387978534803608e-06 0.0000000000000000e+00  -1.0091902299320499e-05 4.6121066778443629e-06 0.0000000000000000e+00  -1.4052641368785313e-05 -7.3700733574123824e-07 0.0000000000000000e+00  -1.6732953173154672e-05 -8.1892222041825415e-06 0.0000000000000000e+00  -1.7715489466722225e-05 -1.7715489467869026e-05 0.0000000000000000e+00  -1.6587357936536851e-05 -2.9276718653149704e-05 0.0000000000000000e+00  -1.2943016094299726e-05 -4.2823257868076725e-05 0.0000000000000000e+00  -6.3865248053911520e-06 -5.8294239193356427e-05 0.0000000000000000e+00  3.4662656442629064e-06 -7.5616770963584452e-05 0.0000000000000000e+00  1.6985392659234558e-05 -9.4705004328751193e-05 0.0000000000000000e+00  3.4524246701285529e-05 -1.1545911006769014e-04 0.0000000000000000e+00  5.6416790874119039e-05 -1.3776420230994258e-04 0.0000000000000000e+00  8.2974515832819800e-05 -1.6148924761092993e-04 0.0000000000000000e+00  1.1448311942742480e-04 -1.8648600132200170e-04 0.0000000000000000e+00  1.5119890669498023e-04 -2.1258801818882500e-04 0.0000000000000000e+00  1.9334491041764952e-04 -2.3960978924845598e-04 0.0000000000000000e+00  2.4110673352530410e-04 -2.6734606240951751e-04 0.0000000000000000e+00  2.9462810733811578e-04 -2.9557140815588139e-04 0.0000000000000000e+00  3.5400613522984070e-04 -3.2404009465813674e-04 0.0000000000000000e+00  4.1928613159201197e-04 -3.5248633695792223e-04 0.0000000000000000e+00  4.9045583754823042e-04 -3.8062498286436155e-04 0.0000000000000000e+00  5.6743853283160010e-04 -4.0815269310461369e-04 0.0000000000000000e+00  6.5008404556100917e-04 -4.3474966582486958e-04 0.0000000000000000e+00  7.3815565596993592e-04 -4.6008194742977893e-04 0.0000000000000000e+00  8.3130895908256272e-04 -4.8380436658292645e-04 0.0000000000000000e+00  9.2905507266982754e-04 -5.0556413308629070e-04 0.0000000000000000e+00  1.0306936176346546e-03 -5.2500516825599295e-04 0.0000000000000000e+00  1.1351878271149336e-03 -5.4177329215351845e-04 0.0000000000000000e+00  1.2409298020735337e-03 -5.5552249486114026e-04 0.0000000000000000e+00  1.3452991229913017e-03 -5.6592265433772545e-04 0.0000000000000000e+00  1.4438368184897300e-03 -5.7266916471574846e-04 0.0000000000000000e+00  1.5287127882965168e-03 -5.7549481691030488e-04 0.0000000000000000e+00  1.5859182144383613e-03 -5.7418353897065687e-04 0.0000000000000000e+00  1.5902138444590949e-03 -5.6858368125126753e-04 0.0000000000000000e+00  1.4962705802501561e-03 -5.5861506447910277e-04 0.0000000000000000e+00  1.2237040577218142e-03 -5.4426029523731861e-04 0.0000000000000000e+00  6.3318470286670252e-04 -5.2553298527877078e-04 0.0000000000000000e+00  -5.0846439096983607e-04 -5.0243793651684324e-04 0.0000000000000000e+00  -2.5723098301891146e-03 -4.7499924460357826e-04 0.0000000000000000e+00  -6.1096966678444086e-03 -4.4352238219693644e-04 0.0000000000000000e+00  0.0000000000000000e+00 1.5376099089015205e-05 0.0000000000000000e+00  -7.5764509947972495e-06 1.4066483434779102e-05 0.0000000000000000e+00  -1.4711211642069940e-05 1.0199236913317433e-05 0.0000000000000000e+00  -2.0984896331366813e-05 3.7841990251146229e-06 0.0000000000000000e+00  -2.5979175016414826e-05 -5.1560383174435728e-06 0.0000000000000000e+00  -2.9276718651502296e-05 -1.6587357937210093e-05 0.0000000000000000e+00  -3.0464011428856961e-05 -3.0464011428956236e-05 0.0000000000000000e+00  -2.9133985998744552e-05 -4.6727984875163149e-05 0.0000000000000000e+00  -2.4888183821110886e-05 -6.5308152386409134e-05 0.0000000000000000e+00  -1.7338837889781215e-05 -8.6119252777852652e-05 0.0000000000000000e+00  -6.1110845709418028e-06 -1.0906072170991980e-04 0.0000000000000000e+00  9.1546052091330487e-06 -1.3401541549426529e-04 0.0000000000000000e+00  2.8799731154144932e-05 -1.6084826549393803e-04 0.0000000000000000e+00  5.3144778923756209e-05 -1.8940490623887681e-04 0.0000000000000000e+00  8.2485928475850762e-05 -2.1951032612674393e-04 0.0000000000000000e+00  1.1709144448541353e-04 -2.5096759654703882e-04 0.0000000000000000e+00  1.5719774238579114e-04 -2.8355674266431868e-04 0.0000000000000000e+00  2.0300512472867956e-04 -3.1703382658121036e-04 0.0000000000000000e+00  2.5467317578757028e-04 -3.5113032029110045e-04 0.0000000000000000e+00  3.1231577883767737e-04 -3.8555285120804881e-04 0.0000000000000000e+00  3.7599566208198804e-04 -4.1998340636318975e-04 0.0000000000000000e+00  4.4571825237229776e-04 -4.5408008200196077e-04 0.0000000000000000e+00  5.2142435518320450e-04 -4.8747846283137149e-04 0.0000000000000000e+00  6.0298066184345204e-04 -5.1979370992806192e-04 0.0000000000000000e+00  6.9016607742432138e-04 -5.5062342906922522e-04 0.0000000000000000e+00  7.8264992511836056e-04 -5.7955138437504631e-04 0.0000000000000000e+00  8.7995439096985085e-04 -6.0615211959497779e-04 0.0000000000000000e+00  9.8138659120121136e-04 -6.2999655553693044e-04 0.0000000000000000e+00  1.0859125432224534e-03 -6.5065865061003452e-04 0.0000000000000000e+00  1.1919209551993653e-03 -6.6772323719957330e-04 0.0000000000000000e+00  1.2967799494596167e-03 -6.8079515396847880e-04 0.0000000000000000e+00  1.3960087461924618e-03 -6.8950971419667721e-04 0.0000000000000000e+00  1.4817428011213770e-03 -6.9354424714572103e-04 0.0000000000000000e+00  1.5399251384531252e-03 -6.9262972806979591e-04 0.0000000000000000e+00  1.5452573