<?xml version="1.0"?>
<VTKFile type="UnstructuredGrid"  version="0.1"  >
<UnstructuredGrid>
<Piece  NumberOfPoints="1681" NumberOfCells="3200">
<Points>
<DataArray  type="Float64"  NumberOfComponents="3"  format="ascii">0 0 0  0.5 0 0  1 0 0  1.5 0 0  2 0 0  2.5 0 0  3 0 0  3.5 0 0  4 0 0  4.5 0 0  5 0 0  5.5 0 0  6 0 0  6.5 0 0  7 0 0  7.5 0 0  8 0 0  8.5 0 0  9 0 0  9.5 0 0  10 0 0  10.5 0 0  11 0 0  11.5 0 0  12 0 0  12.5 0 0  13 0 0  13.5 0 0  14 0 0  14.5 0 0  15 0 0  15.5 0 0  16 0 0  16.5 0 0  17 0 0  17.5 0 0  18 0 0  18.5 0 0  19 0 0  19.5 0 0  20 0 0  0 0.5 0  0.5 0.5 0  1 0.5 0  1.5 0.5 0  2 0.5 0  2.5 0.5 0  3 0.5 0  3.5 0.5 0  4 0.5 0  4.5 0.5 0  5 0.5 0  5.5 0.5 0  6 0.5 0  6.5 0.5 0  7 0.5 0  7.5 0.5 0  8 0.5 0  8.5 0.5 0  9 0.5 0  9.5 0.5 0  10 0.5 0  10.5 0.5 0  11 0.5 0  11.5 0.5 0  12 0.5 0  12.5 0.5 0  13 0.5 0  13.5 0.5 0  14 0.5 0  14.5 0.5 0  15 0.5 0  15.5 0.5 0  16 0.5 0  16.5 0.5 0  17 0.5 0  17.5 0.5 0  18 0.5 0  18.5 0.5 0  19 0.5 0  19.5 0.5 0  20 0.5 0  0 1 0  0.5 1 0  1 1 0  1.5 1 0  2 1 0  2.5 1 0  3 1 0  3.5 1 0  4 1 0  4.5 1 0  5 1 0  5.5 1 0  6 1 0  6.5 1 0  7 1 0  7.5 1 0  8 1 0  8.5 1 0  9 1 0  9.5 1 0  10 1 0  10.5 1 0  11 1 0  11.5 1 0  12 1 0  12.5 1 0  13 1 0  13.5 1 0  14 1 0  14.5 1 0  15 1 0  15.5 1 0  16 1 0  16.5 1 0  17 1 0  17.5 1 0  18 1 0  18.5 1 0  19 1 0  19.5 1 0  20 1 0  0 1.5 0  0.5 1.5 0  1 1.5 0  1.5 1.5 0  2 1.5 0  2.5 1.5 0  3 1.5 0  3.5 1.5 0  4 1.5 0  4.5 1.5 0  5 1.5 0  5.5 1.5 0  6 1.5 0  6.5 1.5 0  7 1.5 0  7.5 1.5 0  8 1.5 0  8.5 1.5 0  9 1.5 0  9.5 1.5 0  10 1.5 0  10.5 1.5 0  11 1.5 0  11.5 1.5 0  12 1.5 0  12.5 1.5 0  13 1.5 0  13.5 1.5 0  14 1.5 0  14.5 1.5 0  15 1.5 0  15.5 1.5 0  16 1.5 0  16.5 1.5 0  17 1.5 0  17.5 1.5 0  18 1.5 0  18.5 1.5 0  19 1.5 0  19.5 1.5 0  20 1.5 0  0 2 0  0.5 2 0  1 2 0  1.5 2 0  2 2 0  2.5 2 0  3 2 0  3.5 2 0  4 2 0  4.5 2 0  5 2 0  5.5 2 0  6 2 0  6.5 2 0  7 2 0  7.5 2 0  8 2 0  8.5 2 0  9 2 0  9.5 2 0  10 2 0  10.5 2 0  11 2 0  11.5 2 0  12 2 0  12.5 2 0  13 2 0  13.5 2 0  14 2 0  14.5 2 0  15 2 0  15.5 2 0  16 2 0  16.5 2 0  17 2 0  17.5 2 0  18 2 0  18.5 2 0  19 2 0  19.5 2 0  20 2 0  0 2.5 0  0.5 2.5 0  1 2.5 0  1.5 2.5 0  2 2.5 0  2.5 2.5 0  3 2.5 0  3.5 2.5 0  4 2.5 0  4.5 2.5 0  5 2.5 0  5.5 2.5 0  6 2.5 0  6.5 2.5 0  7 2.5 0  7.5 2.5 0  8 2.5 0  8.5 2.5 0  9 2.5 0  9.5 2.5 0  10 2.5 0  10.5 2.5 0  11 2.5 0  11.5 2.5 0  12 2.5 0  12.5 2.5 0  13 2.5 0  13.5 2.5 0  14 2.5 0  14.5 2.5 0  15 2.5 0  15.5 2.5 0  16 2.5 0  16.5 2.5 0  17 2.5 0  17.5 2.5 0  18 2.5 0  18.5 2.5 0  19 2.5 0  19.5 2.5 0  20 2.5 0  0 3 0  0.5 3 0  1 3 0  1.5 3 0  2 3 0  2.5 3 0  3 3 0  3.5 3 0  4 3 0  4.5 3 0  5 3 0  5.5 3 0  6 3 0  6.5 3 0  7 3 0  7.5 3 0  8 3 0  8.5 3 0  9 3 0  9.5 3 0  10 3 0  10.5 3 0  11 3 0  11.5 3 0  12 3 0  12.5 3 0  13 3 0  13.5 3 0  14 3 0  14.5 3 0  15 3 0  15.5 3 0  16 3 0  16.5 3 0  17 3 0  17.5 3 0  18 3 0  18.5 3 0  19 3 0  19.5 3 0  20 3 0  0 3.5 0  0.5 3.5 0  1 3.5 0  1.5 3.5 0  2 3.5 0  2.5 3.5 0  3 3.5 0  3.5 3.5 0  4 3.5 0  4.5 3.5 0  5 3.5 0  5.5 3.5 0  6 3.5 0  6.5 3.5 0  7 3.5 0  7.5 3.5 0  8 3.5 0  8.5 3.5 0  9 3.5 0  9.5 3.5 0  10 3.5 0  10.5 3.5 0  11 3.5 0  11.5 3.5 0  12 3.5 0  12.5 3.5 0  13 3.5 0  13.5 3.5 0  14 3.5 0  14.5 3.5 0  15 3.5 0  15.5 3.5 0  16 3.5 0  16.5 3.5 0  17 3.5 0  17.5 3.5 0  18 3.5 0  18.5 3.5 0  19 3.5 0  19.5 3.5 0  20 3.5 0  0 4 0  0.5 4 0  1 4 0  1.5 4 0  2 4 0  2.5 4 0  3 4 0  3.5 4 0  4 4 0  4.5 4 0  5 4 0  5.5 4 0  6 4 0  6.5 4 0  7 4 0  7.5 4 0  8 4 0  8.5 4 0  9 4 0  9.5 4 0  10 4 0  10.5 4 0  11 4 0  11.5 4 0  12 4 0  12.5 4 0  13 4 0  13.5 4 0  14 4 0  14.5 4 0  15 4 0  15.5 4 0  16 4 0  16.5 4 0  17 4 0  17.5 4 0  18 4 0  18.5 4 0  19 4 0  19.5 4 0  20 4 0  0 4.5 0  0.5 4.5 0  1 4.5 0  1.5 4.5 0  2 4.5 0  2.5 4.5 0  3 4.5 0  3.5 4.5 0  4 4.5 0  4.5 4.5 0  5 4.5 0  5.5 4.5 0  6 4.5 0  6.5 4.5 0  7 4.5 0  7.5 4.5 0  8 4.5 0  8.5 4.5 0  9 4.5 0  9.5 4.5 0  10 4.5 0  10.5 4.5 0  11 4.5 0  11.5 4.5 0  12 4.5 0  12.5 4.5 0  13 4.5 0  13.5 4.5 0  14 4.5 0  14.5 4.5 0  15 4.5 0  15.5 4.5 0  16 4.5 0  16.5 4.5 0  17 4.5 0  17.5 4.5 0  18 4.5 0  18.5 4.5 0  19 4.5 0  19.5 4.5 0  20 4.5 0  0 5 0  0.5 5 0  1 5 0  1.5 5 0  2 5 0  2.5 5 0  3 5 0  3.5 5 0  4 5 0  4.5 5 0  5 5 0  5.5 5 0  6 5 0  6.5 5 0  7 5 0  7.5 5 0  8 5 0  8.5 5 0  9 5 0  9.5 5 0  10 5 0  10.5 5 0  11 5 0  11.5 5 0  12 5 0  12.5 5 0  13 5 0  13.5 5 0  14 5 0  14.5 5 0  15 5 0  15.5 5 0  16 5 0  16.5 5 0  17 5 0  17.5 5 0  18 5 0  18.5 5 0  19 5 0  19.5 5 0  20 5 0  0 5.5 0  0.5 5.5 0  1 5.5 0  1.5 5.5 0  2 5.5 0  2.5 5.5 0  3 5.5 0  3.5 5.5 0  4 5.5 0  4.5 5.5 0  5 5.5 0  5.5 5.5 0  6 5.5 0  6.5 5.5 0  7 5.5 0  7.5 5.5 0  8 5.5 0  8.5 5.5 0  9 5.5 0  9.5 5.5 0  10 5.5 0  10.5 5.5 0  11 5.5 0  11.5 5.5 0  12 5.5 0  12.5 5.5 0  13 5.5 0  13.5 5.5 0  14 5.5 0  14.5 5.5 0  15 5.5 0  15.5 5.5 0  16 5.5 0  16.5 5.5 0  17 5.5 0  17.5 5.5 0  18 5.5 0  18.5 5.5 0  19 5.5 0  19.5 5.5 0  20 5.5 0  0 6 0  0.5 6 0  1 6 0  1.5 6 0  2 6 0  2.5 6 0  3 6 0  3.5 6 0  4 6 0  4.5 6 0  5 6 0  5.5 6 0  6 6 0  6.5 6 0  7 6 0  7.5 6 0  8 6 0  8.5 6 0  9 6 0  9.5 6 0  10 6 0  10.5 6 0  11 6 0  11.5 6 0  12 6 0  12.5 6 0  13 6 0  13.5 6 0  14 6 0  14.5 6 0  15 6 0  15.5 6 0  16 6 0  16.5 6 0  17 6 0  17.5 6 0  18 6 0  18.5 6 0  19 6 0  19.5 6 0  20 6 0  0 6.5 0  0.5 6.5 0  1 6.5 0  1.5 6.5 0  2 6.5 0  2.5 6.5 0  3 6.5 0  3.5 6.5 0  4 6.5 0  4.5 6.5 0  5 6.5 0  5.5 6.5 0  6 6.5 0  6.5 6.5 0  7 6.5 0  7.5 6.5 0  8 6.5 0  8.5 6.5 0  9 6.5 0  9.5 6.5 0  10 6.5 0  10.5 6.5 0  11 6.5 0  11.5 6.5 0  12 6.5 0  12.5 6.5 0  13 6.5 0  13.5 6.5 0  14 6.5 0  14.5 6.5 0  15 6.5 0  15.5 6.5 0  16 6.5 0  16.5 6.5 0  17 6.5 0  17.5 6.5 0  18 6.5 0  18.5 6.5 0  19 6.5 0  19.5 6.5 0  20 6.5 0  0 7 0  0.5 7 0  1 7 0  1.5 7 0  2 7 0  2.5 7 0  3 7 0  3.5 7 0  4 7 0  4.5 7 0  5 7 0  5.5 7 0  6 7 0  6.5 7 0  7 7 0  7.5 7 0  8 7 0  8.5 7 0  9 7 0  9.5 7 0  10 7 0  10.5 7 0  11 7 0  11.5 7 0  12 7 0  12.5 7 0  13 7 0  13.5 7 0  14 7 0  14.5 7 0  15 7 0  15.5 7 0  16 7 0  16.5 7 0  17 7 0  17.5 7 0  18 7 0  18.5 7 0  19 7 0  19.5 7 0  20 7 0  0 7.5 0  0.5 7.5 0  1 7.5 0  1.5 7.5 0  2 7.5 0  2.5 7.5 0  3 7.5 0  3.5 7.5 0  4 7.5 0  4.5 7.5 0  5 7.5 0  5.5 7.5 0  6 7.5 0  6.5 7.5 0  7 7.5 0  7.5 7.5 0  8 7.5 0  8.5 7.5 0  9 7.5 0  9.5 7.5 0  10 7.5 0  10.5 7.5 0  11 7.5 0  11.5 7.5 0  12 7.5 0  12.5 7.5 0  13 7.5 0  13.5 7.5 0  14 7.5 0  14.5 7.5 0  15 7.5 0  15.5 7.5 0  16 7.5 0  16.5 7.5 0  17 7.5 0  17.5 7.5 0  18 7.5 0  18.5 7.5 0  19 7.5 0  19.5 7.5 0  20 7.5 0  0 8 0  0.5 8 0  1 8 0  1.5 8 0  2 8 0  2.5 8 0  3 8 0  3.5 8 0  4 8 0  4.5 8 0  5 8 0  5.5 8 0  6 8 0  6.5 8 0  7 8 0  7.5 8 0  8 8 0  8.5 8 0  9 8 0  9.5 8 0  10 8 0  10.5 8 0  11 8 0  11.5 8 0  12 8 0  12.5 8 0  13 8 0  13.5 8 0  14 8 0  14.5 8 0  15 8 0  15.5 8 0  16 8 0  16.5 8 0  17 8 0  17.5 8 0  18 8 0  18.5 8 0  19 8 0  19.5 8 0  20 8 0  0 8.5 0  0.5 8.5 0  1 8.5 0  1.5 8.5 0  2 8.5 0  2.5 8.5 0  3 8.5 0  3.5 8.5 0  4 8.5 0  4.5 8.5 0  5 8.5 0  5.5 8.5 0  6 8.5 0  6.5 8.5 0  7 8.5 0  7.5 8.5 0  8 8.5 0  8.5 8.5 0  9 8.5 0  9.5 8.5 0  10 8.5 0  10.5 8.5 0  11 8.5 0  11.5 8.5 0  12 8.5 0  12.5 8.5 0  13 8.5 0  13.5 8.5 0  14 8.5 0  14.5 8.5 0  15 8.5 0  15.5 8.5 0  16 8.5 0  16.5 8.5 0  17 8.5 0  17.5 8.5 0  18 8.5 0  18.5 8.5 0  19 8.5 0  19.5 8.5 0  20 8.5 0  0 9 0  0.5 9 0  1 9 0  1.5 9 0  2 9 0  2.5 9 0  3 9 0  3.5 9 0  4 9 0  4.5 9 0  5 9 0  5.5 9 0  6 9 0  6.5 9 0  7 9 0  7.5 9 0  8 9 0  8.5 9 0  9 9 0  9.5 9 0  10 9 0  10.5 9 0  11 9 0  11.5 9 0  12 9 0  12.5 9 0  13 9 0  13.5 9 0  14 9 0  14.5 9 0  15 9 0  15.5 9 0  16 9 0  16.5 9 0  17 9 0  17.5 9 0  18 9 0  18.5 9 0  19 9 0  19.5 9 0  20 9 0  0 9.5 0  0.5 9.5 0  1 9.5 0  1.5 9.5 0  2 9.5 0  2.5 9.5 0  3 9.5 0  3.5 9.5 0  4 9.5 0  4.5 9.5 0  5 9.5 0  5.5 9.5 0  6 9.5 0  6.5 9.5 0  7 9.5 0  7.5 9.5 0  8 9.5 0  8.5 9.5 0  9 9.5 0  9.5 9.5 0  10 9.5 0  10.5 9.5 0  11 9.5 0  11.5 9.5 0  12 9.5 0  12.5 9.5 0  13 9.5 0  13.5 9.5 0  14 9.5 0  14.5 9.5 0  15 9.5 0  15.5 9.5 0  16 9.5 0  16.5 9.5 0  17 9.5 0  17.5 9.5 0  18 9.5 0  18.5 9.5 0  19 9.5 0  19.5 9.5 0  20 9.5 0  0 10 0  0.5 10 0  1 10 0  1.5 10 0  2 10 0  2.5 10 0  3 10 0  3.5 10 0  4 10 0  4.5 10 0  5 10 0  5.5 10 0  6 10 0  6.5 10 0  7 10 0  7.5 10 0  8 10 0  8.5 10 0  9 10 0  9.5 10 0  10 10 0  10.5 10 0  11 10 0  11.5 10 0  12 10 0  12.5 10 0  13 10 0  13.5 10 0  14 10 0  14.5 10 0  15 10 0  15.5 10 0  16 10 0  16.5 10 0  17 10 0  17.5 10 0  18 10 0  18.5 10 0  19 10 0  19.5 10 0  20 10 0  0 10.5 0  0.5 10.5 0  1 10.5 0  1.5 10.5 0  2 10.5 0  2.5 10.5 0  3 10.5 0  3.5 10.5 0  4 10.5 0  4.5 10.5 0  5 10.5 0  5.5 10.5 0  6 10.5 0  6.5 10.5 0  7 10.5 0  7.5 10.5 0  8 10.5 0  8.5 10.5 0  9 10.5 0  9.5 10.5 0  10 10.5 0  10.5 10.5 0  11 10.5 0  11.5 10.5 0  12 10.5 0  12.5 10.5 0  13 10.5 0  13.5 10.5 0  14 10.5 0  14.5 10.5 0  15 10.5 0  15.5 10.5 0  16 10.5 0  16.5 10.5 0  17 10.5 0  17.5 10.5 0  18 10.5 0  18.5 10.5 0  19 10.5 0  19.5 10.5 0  20 10.5 0  0 11 0  0.5 11 0  1 11 0  1.5 11 0  2 11 0  2.5 11 0  3 11 0  3.5 11 0  4 11 0  4.5 11 0  5 11 0  5.5 11 0  6 11 0  6.5 11 0  7 11 0  7.5 11 0  8 11 0  8.5 11 0  9 11 0  9.5 11 0  10 11 0  10.5 11 0  11 11 0  11.5 11 0  12 11 0  12.5 11 0  13 11 0  13.5 11 0  14 11 0  14.5 11 0  15 11 0  15.5 11 0  16 11 0  16.5 11 0  17 11 0  17.5 11 0  18 11 0  18.5 11 0  19 11 0  19.5 11 0  20 11 0  0 11.5 0  0.5 11.5 0  1 11.5 0  1.5 11.5 0  2 11.5 0  2.5 11.5 0  3 11.5 0  3.5 11.5 0  4 11.5 0  4.5 11.5 0  5 11.5 0  5.5 11.5 0  6 11.5 0  6.5 11.5 0  7 11.5 0  7.5 11.5 0  8 11.5 0  8.5 11.5 0  9 11.5 0  9.5 11.5 0  10 11.5 0  10.5 11.5 0  11 11.5 0  11.5 11.5 0  12 11.5 0  12.5 11.5 0  13 11.5 0  13.5 11.5 0  14 11.5 0  14.5 11.5 0  15 11.5 0  15.5 11.5 0  16 11.5 0  16.5 11.5 0  17 11.5 0  17.5 11.5 0  18 11.5 0  18.5 11.5 0  19 11.5 0  19.5 11.5 0  20 11.5 0  0 12 0  0.5 12 0  1 12 0  1.5 12 0  2 12 0  2.5 12 0  3 12 0  3.5 12 0  4 12 0  4.5 12 0  5 12 0  5.5 12 0  6 12 0  6.5 12 0  7 12 0  7.5 12 0  8 12 0  8.5 12 0  9 12 0  9.5 12 0  10 12 0  10.5 12 0  11 12 0  11.5 12 0  12 12 0  12.5 12 0  13 12 0  13.5 12 0  14 12 0  14.5 12 0  
[...]
<PointData  Vectors="f_5623-0"> 
<DataArray  type="Float64"  Name="f_5623-0"  NumberOfComponents="3" format="ascii">0.0000000000000000e+00 0.0000000000000000e+00 0.0000000000000000e+00  1.8166623564397902e-06 0.0000000000000000e+00 0.0000000000000000e+00  8.6649945733921125e-06 0.0000000000000000e+00 0.0000000000000000e+00  2.7319853666338045e-05 0.0000000000000000e+00 0.0000000000000000e+00  6.3642926809731579e-05 0.0000000000000000e+00 0.0000000000000000e+00  1.2337022096455311e-04 0.0000000000000000e+00 0.0000000000000000e+00  2.1213280641962893e-04 0.0000000000000000e+00 0.0000000000000000e+00  3.3542164144905183e-04 0.0000000000000000e+00 0.0000000000000000e+00  4.9854708055830407e-04 0.0000000000000000e+00 0.0000000000000000e+00  7.0659325472522143e-04 0.0000000000000000e+00 0.0000000000000000e+00  9.6436446990199210e-04 0.0000000000000000e+00 0.0000000000000000e+00  1.2763203003774370e-03 0.0000000000000000e+00 0.0000000000000000e+00  1.6464951292720937e-03 0.0000000000000000e+00 0.0000000000000000e+00  2.0783964316591040e-03 0.0000000000000000e+00 0.0000000000000000e+00  2.5748740756237677e-03 0.0000000000000000e+00 0.0000000000000000e+00  3.1379502333649242e-03 0.0000000000000000e+00 0.0000000000000000e+00  3.7685960225924161e-03 0.0000000000000000e+00 0.0000000000000000e+00  4.4664366161471696e-03 0.0000000000000000e+00 0.0000000000000000e+00  5.2293611782712876e-03 0.0000000000000000e+00 0.0000000000000000e+00  6.0530075966429642e-03 0.0000000000000000e+00 0.0000000000000000e+00  6.9300847007894763e-03 0.0000000000000000e+00 0.0000000000000000e+00  7.8494868190639860e-03 0.0000000000000000e+00 0.0000000000000000e+00  8.7951477713261225e-03 0.0000000000000000e+00 0.0000000000000000e+00  9.7445748021908994e-03 0.0000000000000000e+00 0.0000000000000000e+00  1.0666999191990944e-02 0.0000000000000000e+00 0.0000000000000000e+00  1.1521081723959829e-02 0.0000000000000000e+00 0.0000000000000000e+00  1.2252121048962537e-02 0.0000000000000000e+00 0.0000000000000000e+00  1.2788735304853719e-02 0.0000000000000000e+00 0.0000000000000000e+00  1.3039026729073335e-02 0.0000000000000000e+00 0.0000000000000000e+00  1.2886300000920775e-02 0.0000000000000000e+00 0.0000000000000000e+00  1.2184490892772723e-02 0.0000000000000000e+00 0.0000000000000000e+00  1.0753572347339894e-02 0.0000000000000000e+00 0.0000000000000000e+00  8.3753339620014858e-03 0.0000000000000000e+00 0.0000000000000000e+00  4.7900623178859063e-03 0.0000000000000000e+00 0.0000000000000000e+00  -3.0524364263005368e-04 0.0000000000000000e+00 0.0000000000000000e+00  -7.2564436850878740e-03 0.0000000000000000e+00 0.0000000000000000e+00  -1.6448994081834416e-02 0.0000000000000000e+00 0.0000000000000000e+00  -2.8301417570579194e-02 0.0000000000000000e+00 0.0000000000000000e+00  -4.3255328883740285e-02 0.0000000000000000e+00 0.0000000000000000e+00  -6.1761765919243469e-02 0.0000000000000000e+00 0.0000000000000000e+00  -8.4261326390598329e-02 0.0000000000000000e+00 0.0000000000000000e+00  0.0000000000000000e+00 1.8166623569388987e-06 0.0000000000000000e+00  -1.9881730326842449e-06 -1.9881730340267892e-06 0.0000000000000000e+00  2.1647349371803450e-06 -1.1267958071751986e-05 0.0000000000000000e+00  1.7985284296014805e-05 -2.6111719579952629e-05 0.0000000000000000e+00  5.1393303021964462e-05 -4.6659657842242975e-05 0.0000000000000000e+00  1.0817936273294155e-04 -7.2902309270393137e-05 0.0000000000000000e+00  1.9399614047272513e-04 -1.0474763087563486e-04 0.0000000000000000e+00  3.1434421705567989e-04 -1.4205588973257392e-04 0.0000000000000000e+00  4.7454032395544729e-04 -1.8465050048477181e-04 0.0000000000000000e+00  6.7967475585232334e-04 -2.3231982227910896e-04 0.0000000000000000e+00  9.3455887810018105e-04 -2.8481592441378082e-04 0.0000000000000000e+00  1.2436606782766293e-03 -3.4185232844191789e-04 0.0000000000000000e+00  1.6110245171478824e-03 -4.0310140225054288e-04 0.0000000000000000e+00  2.0401695040951347e-03 -4.6819167868038448e-04 0.0000000000000000e+00  2.5339588127948377e-03 -5.3670525911272537e-04 0.0000000000000000e+00  3.0944295383855858e-03 -6.0817543906460496e-04 0.0000000000000000e+00  3.7225692123121017e-03 -6.8208469817099260e-04 0.0000000000000000e+00  4.4180207031435737e-03 -7.5786321139208353e-04 0.0000000000000000e+00  5.1786918491764115e-03 -8.3488805668089153e-04 0.0000000000000000e+00  6.0002397792272254e-03 -9.1248331259072778e-04 0.0000000000000000e+00  6.8753926013161602e-03 -9.8992125656176505e-04 0.0000000000000000e+00  7.7930633063825671e-03 -1.0664248885093324e-03 0.0000000000000000e+00  8.7372029898522413e-03 -1.1411720131249239e-03 0.0000000000000000e+00  9.6853339200404596e-03 -1.2133011150769310e-03 0.0000000000000000e+00  1.0606699243181628e-02 -1.2819192504603478e-03 0.0000000000000000e+00  1.1459967597028269e-02 -1.3461121494996074e-03 0.0000000000000000e+00  1.2190440821588178e-02 -1.4049566721509189e-03 0.0000000000000000e+00  1.2726735333556402e-02 -1.4575356672901368e-03 0.0000000000000000e+00  1.2976947171531007e-02 -1.5029551429714984e-03 0.0000000000000000e+00  1.2824371746745609e-02 -1.5403634402715448e-03 0.0000000000000000e+00  1.2122935136243284e-02 -1.5689717999007370e-03 0.0000000000000000e+00  1.0692604123757190e-02 -1.5880753132825973e-03 0.0000000000000000e+00  8.3151706925305609e-03 -1.5970727781684409e-03 0.0000000000000000e+00  4.7309375000090881e-03 -1.5954834984734992e-03 0.0000000000000000e+00  -3.6306338725296136e-04 -1.5829586881138116e-03 0.0000000000000000e+00  -7.3126438040937948e-03 -1.5592849366979412e-03 0.0000000000000000e+00  -1.6503214056280736e-02 -1.5243768189786328e-03 0.0000000000000000e+00  -2.8353313605947405e-02 -1.4782528031464207e-03 0.0000000000000000e+00  -4.3304876822398433e-02 -1.4209730832511803e-03 0.0000000000000000e+00  -6.1810764818525918e-02 -1.3524550881707340e-03 0.0000000000000000e+00  -8.4321523126366177e-02 -1.2719047057733407e-03 0.0000000000000000e+00  0.0000000000000000e+00 8.6649945732804379e-06 0.0000000000000000e+00  -1.1267958073577600e-05 2.1647349364201041e-06 0.0000000000000000e+00  -1.6038884491783730e-05 -1.6038884489437635e-05 0.0000000000000000e+00  -9.0346321777050093e-06 -4.5782158248750316e-05 0.0000000000000000e+00  1.5560459852974025e-05 -8.7010078101422758e-05 0.0000000000000000e+00  6.3520825629621313e-05 -1.3960498945238113e-04 0.0000000000000000e+00  1.4050913051218407e-04 -2.0337431210823775e-04 0.0000000000000000e+00  2.5204072978124035e-04 -2.7805008963906566e-04 0.0000000000000000e+00  4.0344851704224652e-04 -3.6329117959754616e-04 0.0000000000000000e+00  5.9984094296307213e-04 -4.5868365022461394e-04 0.0000000000000000e+00  8.4605057149209615e-04 -5.6373882941856480e-04 0.0000000000000000e+00  1.1465704566704148e-03 -6.7788968200038823e-04 0.0000000000000000e+00  1.5054744460167673e-03 -8.0048623895985385e-04 0.0000000000000000e+00  1.9263158787983764e-03 -9.3079062236719014e-04 0.0000000000000000e+00  2.4119970272664720e-03 -1.0679720726513692e-03 0.0000000000000000e+00  2.9645988915112096e-03 -1.2111023193307595e-03 0.0000000000000000e+00  3.5851574571801638e-03 -1.3591516192389490e-03 0.0000000000000000e+00  4.2733681272451524e-03 -1.5109857962540014e-03 0.0000000000000000e+00  5.0271946523002906e-03 -1.6653646390287725e-03 0.0000000000000000e+00  5.8423524943383648e-03 -1.8209420397000888e-03 0.0000000000000000e+00  6.7116292868314338e-03 -1.9762682805972245e-03 0.0000000000000000e+00  7.6239972310483753e-03 -2.1297948926658752e-03 0.0000000000000000e+00  8.5634645401175737e-03 -2.2798825133601634e-03 0.0000000000000000e+00  9.5076064919546038e-03 -2.4248121576175246e-03 0.0000000000000000e+00  1.0425712944862711e-02 -2.5628002767990377e-03 0.0000000000000000e+00  1.1276490692643335e-02 -2.6920179094339701e-03 0.0000000000000000e+00  1.2005269000289398e-02 -2.8106141155703679e-03 0.0000000000000000e+00  1.2540679089251763e-02 -2.9167437220977512e-03 0.0000000000000000e+00  1.2790817822288530e-02 -3.0085991780443525e-03 0.0000000000000000e+00  1.2638966879001309e-02 -3.0844460123289966e-03 0.0000000000000000e+00  1.1939024473658987e-02 -3.1426609919264601e-03 0.0000000000000000e+00  1.0510916903986018e-02 -3.1817715918645117e-03 0.0000000000000000e+00  8.1363854581741179e-03 -3.2004948206179233e-03 0.0000000000000000e+00  4.5556746025851172e-03 -3.1977728197236884e-03 0.0000000000000000e+00  -5.3424753366552210e-04 -3.1728019844332114e-03 0.0000000000000000e+00  -7.4792639248480279e-03 -3.1250515267323949e-03 0.0000000000000000e+00  -1.6664871583285491e-02 -3.0542660175347353e-03 0.0000000000000000e+00  -2.8509732904205359e-02 -2.9604439580069243e-03 0.0000000000000000e+00  -4.3455975648083102e-02 -2.8437835509092188e-03 0.0000000000000000e+00  -6.1956692751268527e-02 -2.7046133343487937e-03 0.0000000000000000e+00  -8.4461626647354265e-02 -2.5435232229737881e-03 0.0000000000000000e+00  0.0000000000000000e+00 2.7319853670134115e-05 0.0000000000000000e+00  -2.6111719579390022e-05 1.7985284294454028e-05 0.0000000000000000e+00  -4.5782158247563209e-05 -9.0346321780610646e-06 0.0000000000000000e+00  -5.3550650688379751e-05 -5.3550650687293571e-05 0.0000000000000000e+00  -4.3687521295212485e-05 -1.1539253154916864e-04 0.0000000000000000e+00  -1.0442405899652950e-05 -1.9433231514158462e-04 0.0000000000000000e+00  5.1846097681794217e-05 -2.9005397180677857e-04 0.0000000000000000e+00  1.4870439640022524e-04 -4.0214692607759052e-04 0.0000000000000000e+00  2.8548477754606396e-04 -5.3010162741435132e-04 0.0000000000000000e+00  4.6732209112512854e-04 -6.7330444509508850e-04 0.0000000000000000e+00  6.9908220590702219e-04 -8.3103172234666304e-04 0.0000000000000000e+00  9.8529874323452569e-04 -1.0024430414923783e-03 0.0000000000000000e+00  1.3300938141686382e-03 -1.1865738951939275e-03 0.0000000000000000e+00  1.7370770501888505e-03 -1.3823280732726995e-03 0.0000000000000000e+00  2.2092151864242411e-03 -1.5884701411424170e-03 0.0000000000000000e+00  2.7486617538040304e-03 -1.8036184269659410e-03 0.0000000000000000e+00  3.3565329469288753e-03 -2.0262389687729842e-03 0.0000000000000000e+00  4.0326113394877818e-03 -2.2546409090678124e-03 0.0000000000000000e+00  4.7749537343037083e-03 -2.4869738627015135e-03 0.0000000000000000e+00  5.5793730496747976e-03 -2.7212278211803699e-03 0.0000000000000000e+00  6.4387568800509300e-03 -2.9552361866903411e-03 0.0000000000000000e+00  7.3421775607673380e-03 -3.1866825471471515e-03 0.0000000000000000e+00  8.2737408595925030e-03 -3.4131118014653948e-03 0.0000000000000000e+00  9.2111138975959298e-03 -3.6319462160112207e-03 0.0000000000000000e+00  1.0123669232905440e-02 -3.8405069307381884e-03 0.0000000000000000e+00  1.0970183610361419e-02 -4.0360413304994271e-03 0.0000000000000000e+00  1.1696039895534220e-02 -4.2157565460789028e-03 0.0000000000000000e+00  1.2229903189322979e-02 -4.3768591445132524e-03 0.0000000000000000e+00  1.2479881638548332e-02 -4.5166008031429662e-03 0.0000000000000000e+00  1.2329243509764602e-02 -4.6323294287993564e-03 0.0000000000000000e+00  1.1631847818852709e-02 -4.7215447744943014e-03 0.0000000000000000e+00  1.0207555947122929e-02 -4.7819571086664481e-03 0.0000000000000000e+00  7.8380197475747069e-03 -4.8115468906015499e-03 0.0000000000000000e+00  4.2633718364796990e-03 -4.8086226797335553e-03 0.0000000000000000e+00  -8.1955128055132161e-04 -4.7718736323581427e-03 0.0000000000000000e+00  -7.7567810013678355e-03 -4.7004119296396888e-03 0.0000000000000000e+00  -1.6933975518542175e-02 -4.5937995923232122e-03 0.0000000000000000e+00  -2.8769962818289477e-02 -4.4520546541022355e-03 0.0000000000000000e+00  -4.3707019936599867e-02 -4.2756377420095516e-03 0.0000000000000000e+00  -6.2198323916424693e-02 -4.0654390155188446e-03 0.0000000000000000e+00  -8.4693583973907818e-02 -3.8228018298541310e-03 0.0000000000000000e+00  0.0000000000000000e+00 6.3642926810532141e-05 0.0000000000000000e+00  -4.6659657841733427e-05 5.1393303021211151e-05 0.0000000000000000e+00  -8.7010078102441976e-05 1.5560459854565651e-05 0.0000000000000000e+00  -1.1539253155277617e-04 -4.3687521290812068e-05 0.0000000000000000e+00  -1.2610446235790108e-04 -1.2610446235531057e-04 0.0000000000000000e+00  -1.1341283593169681e-04 -2.3136637485490159e-04 0.0000000000000000e+00  -7.1655374681841303e-05 -3.5904256631195204e-04 0.0000000000000000e+00  4.7075828850187619e-06 -5.0858443125210778e-04 0.0000000000000000e+00  1.2105185874208394e-04 -6.7931748777864780e-04 0.0000000000000000e+00  2.8254584088357397e-04 -8.7043309932836334e-04 0.0000000000000000e+00  4.9409922499103927e-04 -1.0809792568204457e-03 0.0000000000000000e+00  7.6030020967603055e-04 -1.3098505500166913e-03 0.0000000000000000e+00  1.0853366967750564e-03 -1.5557776187684735e-03 0.0000000000000000e+00  1.4728956677559652e-03 -1.8173164341827670e-03 0.0000000000000000e+00  1.9260329007179868e-03 -2.0928378196324727e-03 0.0000000000000000e+00  2.4470025052943010e-03 -2.3805176883113987e-03 0.0000000000000000e+00  3.0370322722782805e-03 -2.6783285428188994e-03 0.0000000000000000e+00  3.6960264465860839e-03 -2.9840328490322362e-03 0.0000000000000000e+00  4.4221721534570095e-03 -3.2951789594208723e-03 0.0000000000000000e+00  5.2114193309561532e-03 -3.6091003160933595e-03 0.0000000000000000e+00  6.0567967710867289e-03 -3.9229187062243013e-03 0.0000000000000000e+00  6.9475190827090116e-03 -4.2335523669984870e-03 0.0000000000000000e+00  7.8678317096486667e-03 -4.5377297350386175e-03 0.0000000000000000e+00  8.7955346527812429e-03 -4.8320096013386533e-03 0.0000000000000000e+00  9.7001219205832961e-03 -5.1128083579867079e-03 0.0000000000000000e+00  1.0540475353735970e-02 -5.3764349037401125e-03 0.0000000000000000e+00  1.1262061540353755e-02 -5.6191336059571032e-03 0.0000000000000000e+00  1.1793603068932000e-02 -5.8371354950628928e-03 0.0000000000000000e+00  1.2043234925580680e-02 -6.0267175909113884e-03 0.0000000000000000e+00  1.1894217909316589e-02 -6.1842699223061022e-03 0.0000000000000000e+00  1.1200366642336659e-02 -6.3063693875841749e-03 0.0000000000000000e+00  9.7814598250207108e-03 -6.3898590880265794e-03 0.0000000000000000e+00  7.4190283624408276e-03 -6.4319311046301909e-03 0.0000000000000000e+00  3.8530471015241273e-03 -6.4302098342256990e-03 0.0000000000000000e+00  -1.2198390997687377e-03 -6.3828319335680487e-03 0.0000000000000000e+00  -8.1458824142246634e-03 -6.2885177382356579e-03 0.0000000000000000e+00  -1.7310983655959081e-02 -6.1466280968357299e-03 0.0000000000000000e+00  -2.9134224692864957e-02 -5.9572005959103594e-03 0.0000000000000000e+00  -4.4058134345381202e-02 -5.7209601244918402e-03 0.0000000000000000e+00  -6.2536123407576388e-02 -5.4392939663213315e-03 0.0000000000000000e+00  -8.5018070076546756e-02 -5.1141393621823546e-03 0.0000000000000000e+00  0.0000000000000000e+00 1.2337022096779821e-04 0.0000000000000000e+00  -7.2902309270373865e-05 1.0817936273270617e-04 0.0000000000000000e+00  -1.3960498945500202e-04 6.3520825632048977e-05 0.0000000000000000e+00  -1.9433231514380691e-04 -1.0442405896408270e-05 0.0000000000000000e+00  -2.3136637485452887e-04 -1.1341283593281387e-04 0.0000000000000000e+00  -2.4498275879136522e-04 -2.4498275879346641e-04 0.0000000000000000e+00  -2.2951576715829833e-04 -4.0461657198766795e-04 0.0000000000000000e+00  -1.7940963345625143e-04 -5.9163711805223802e-04 0.0000000000000000e+00  -8.9260351344396132e-05 -8.0521470320366864e-04 0.0000000000000000e+00  4.6141010042475773e-05 -1.0443558983664826e-03 0.0000000000000000e+00  2.3175778040822396e-04 -1.3078913470537439e-03 0.0000000000000000e+00  4.7224570392938954e-04 -1.5944626161630685e-03 0.0000000000000000e+00  7.7187486052883946e-04 -1.9025083970602421e-03 0.0000000000000000e+00  1.1344295566895327e-03 -2.2302504786457632e-03 0.0000000000000000e+00  1.5630782670758576e-03 -2.5756799918517860e-03 0.0000000000000000e+00  2.0602030256082400e-03 -2.9365445013080330e-03 0.0000000000000000e+00  2.6271741849077149e-03 -3.3103366011298604e-03 0.0000000000000000e+00  3.2640520759685335e-03 -3.6942847556025145e-03 0.0000000000000000e+00  3.9691917256778220e-03 -4.0853472068325958e-03 0.0000000000000000e+00  4.7387204216705735e-03 -4.4802098447807521e-03 0.0000000000000000e+00  5.5658506779970749e-03 -4.8752889934573947e-03 0.0000000000000000e+00  6.4399833881481671e-03 -5.2667401037228565e-03 0.0000000000000000e+00  7.3455483027496894e-03 -5.6504733501267284e-03 0.0000000000000000e+00  8.2605225245640859e-03 -6.0221770995153023e-03 0.0000000000000000e+00  9.1545641378693692e-03 -6.3773501460185579e-03 0.0000000000000000e+00  9.9866997663188815e-03 -6.7113434863810906e-03 0.0000000000000000e+00  1.0702514983930435e-02 -7.0194122384351848e-03 0.0000000000000000e+00  1.1230819091662346e-02 -7.2967780830809304e-03 0.0000000000000000e+00  1.1479795378226599e-02 -7.5387023329793711e-03 0.0000000000000000e+00  1.1332709077829963e-02 -7.7405693899712360e-03 0.0000000000000000e+00  1.0643330938363026e-02 -7.8979799232361397e-03 0.0000000000000000e+00  9.2313443539259014e-03 -8.0068525358221818e-03 0.0000000000000000e+00  6.8781319404343259e-03 -8.0635319198383137e-03 0.0000000000000000e+00  3.3234675061067378e-03 -8.0649004560622295e-03 0.0000000000000000e+00  -1.7362556346097414e-03 -8.0084888538387994e-03 0.0000000000000000e+00  -8.6475871393386760e-03 -7.8925798160384055e-03 0.0000000000000000e+00  -1.7796763991129009e-02 -7.7162970406910074e-03 0.0000000000000000e+00  -2.9603232515128620e-02 -7.4796701994023105e-03 0.0000000000000000e+00  -4.4509898624890534e-02 -7.1836638021819310e-03 0.0000000000000000e+00  -6.2970527602823997e-02 -6.8301500846148673e-03 0.0000000000000000e+00  -8.5435207220398740e-02 -6.4217889363051613e-03 0.0000000000000000e+00  0.0000000000000000e+00 2.1213280641967338e-04 0.0000000000000000e+00  -1.0474763087637944e-04 1.9399614047288876e-04 0.0000000000000000e+00  -2.0337431210859749e-04 1.4050913051645111e-04 0.0000000000000000e+00  -2.9005397180551504e-04 5.1846097683304585e-05 0.0000000000000000e+00  -3.5904256631119532e-04 -7.1655374682623785e-05 0.0000000000000000e+00  -4.0461657198700664e-04 -2.2951576716015676e-04 0.0000000000000000e+00  -4.2110511247109116e-04 -4.2110511247317109e-04 0.0000000000000000e+00  -4.0293467166826243e-04 -6.4562892993674835e-04 0.0000000000000000e+00  -3.4466968665330830e-04 -9.0211472669737163e-04 0.0000000000000000e+00  -2.4105491123700104e-04 -1.1893979195912088e-03 0.0000000000000000e+00  -8.7064809049062383e-05 -1.5061065983175629e-03 0.0000000000000000e+00  1.2203561303396454e-04 -1.8506451495051003e-03 0.0000000000000000e+00  3.9061373637689115e-04 -2.2211770538041044e-03 0.0000000000000000e+00  7.2256997374749046e-04 -2.6156073208283594e-03 0.0000000000000000e+00  1.1212081095831050e-03 -3.0315651341036162e-03 0.0000000000000000e+00  1.5890646464576440e-03 -3.4663873769317797e-03 0.0000000000000000e+00  2.1276829870666356e-03 -3.9171038100331386e-03 0.0000000000000000e+00  2.7373138938954953e-03 -4.3804247737412793e-03 0.0000000000000000e+00  3.4165182969955327e-03 -4.8527323882637426e-03 0.0000000000000000e+00  4.1616421601128710e-03 -5.3300763182330142e-03 0.0000000000000000e+00  4.9661258938966512e-03 -5.8081752462979253e-03 0.0000000000000000e+00  5.8196030608487501e-03 -6.2824252558977408e-03 0.0000000000000000e+00  6.7067354996222361e-03 -6.7479163482082214e-03 0.0000000000000000e+00  7.6057255933050195e-03 -7.1994583044947364e-03 0.0000000000000000e+00  8.4864428821798937e-03 -7.6316170465354364e-03 0.0000000000000000e+00  9.3081039574174056e-03 -8.0387625403821241e-03 0.0000000000000000e+00  1.0016454766660446e-02 -8.4151291299246582e-03 0.0000000000000000e+00  1.0540427114176592e-02 -8.7548889747953041e-03 0.0000000000000000e+00  1.0788280802446632e-02 -9.0522389958750393e-03 0.0000000000000000e+00  1.0643304000881570e-02 -9.3015013840579298e-03 0.0000000000000000e+00  9.9592301540530753e-03 -9.4972372658034872e-03 0.0000000000000000e+00  8.5556397861377195e-03 -9.6343724749341792e-03 0.0000000000000000e+00  6.2137434708935029e-03 -9.7083334570955224e-03 0.0000000000000000e+00  2.6730722987671741e-03 -9.7151900250576316e-03 0.0000000