<?xml version="1.0"?>
<VTKFile type="UnstructuredGrid"  version="0.1"  >
<UnstructuredGrid>
<Piece  NumberOfPoints="1681" NumberOfCells="3200">
<Points>
<DataArray  type="Float64"  NumberOfComponents="3"  format="ascii">0 0 0  0.5 0 0  1 0 0  1.5 0 0  2 0 0  2.5 0 0  3 0 0  3.5 0 0  4 0 0  4.5 0 0  5 0 0  5.5 0 0  6 0 0  6.5 0 0  7 0 0  7.5 0 0  8 0 0  8.5 0 0  9 0 0  9.5 0 0  10 0 0  10.5 0 0  11 0 0  11.5 0 0  12 0 0  12.5 0 0  13 0 0  13.5 0 0  14 0 0  14.5 0 0  15 0 0  15.5 0 0  16 0 0  16.5 0 0  17 0 0  17.5 0 0  18 0 0  18.5 0 0  19 0 0  19.5 0 0  20 0 0  0 0.5 0  0.5 0.5 0  1 0.5 0  1.5 0.5 0  2 0.5 0  2.5 0.5 0  3 0.5 0  3.5 0.5 0  4 0.5 0  4.5 0.5 0  5 0.5 0  5.5 0.5 0  6 0.5 0  6.5 0.5 0  7 0.5 0  7.5 0.5 0  8 0.5 0  8.5 0.5 0  9 0.5 0  9.5 0.5 0  10 0.5 0  10.5 0.5 0  11 0.5 0  11.5 0.5 0  12 0.5 0  12.5 0.5 0  13 0.5 0  13.5 0.5 0  14 0.5 0  14.5 0.5 0  15 0.5 0  15.5 0.5 0  16 0.5 0  16.5 0.5 0  17 0.5 0  17.5 0.5 0  18 0.5 0  18.5 0.5 0  19 0.5 0  19.5 0.5 0  20 0.5 0  0 1 0  0.5 1 0  1 1 0  1.5 1 0  2 1 0  2.5 1 0  3 1 0  3.5 1 0  4 1 0  4.5 1 0  5 1 0  5.5 1 0  6 1 0  6.5 1 0  7 1 0  7.5 1 0  8 1 0  8.5 1 0  9 1 0  9.5 1 0  10 1 0  10.5 1 0  11 1 0  11.5 1 0  12 1 0  12.5 1 0  13 1 0  13.5 1 0  14 1 0  14.5 1 0  15 1 0  15.5 1 0  16 1 0  16.5 1 0  17 1 0  17.5 1 0  18 1 0  18.5 1 0  19 1 0  19.5 1 0  20 1 0  0 1.5 0  0.5 1.5 0  1 1.5 0  1.5 1.5 0  2 1.5 0  2.5 1.5 0  3 1.5 0  3.5 1.5 0  4 1.5 0  4.5 1.5 0  5 1.5 0  5.5 1.5 0  6 1.5 0  6.5 1.5 0  7 1.5 0  7.5 1.5 0  8 1.5 0  8.5 1.5 0  9 1.5 0  9.5 1.5 0  10 1.5 0  10.5 1.5 0  11 1.5 0  11.5 1.5 0  12 1.5 0  12.5 1.5 0  13 1.5 0  13.5 1.5 0  14 1.5 0  14.5 1.5 0  15 1.5 0  15.5 1.5 0  16 1.5 0  16.5 1.5 0  17 1.5 0  17.5 1.5 0  18 1.5 0  18.5 1.5 0  19 1.5 0  19.5 1.5 0  20 1.5 0  0 2 0  0.5 2 0  1 2 0  1.5 2 0  2 2 0  2.5 2 0  3 2 0  3.5 2 0  4 2 0  4.5 2 0  5 2 0  5.5 2 0  6 2 0  6.5 2 0  7 2 0  7.5 2 0  8 2 0  8.5 2 0  9 2 0  9.5 2 0  10 2 0  10.5 2 0  11 2 0  11.5 2 0  12 2 0  12.5 2 0  13 2 0  13.5 2 0  14 2 0  14.5 2 0  15 2 0  15.5 2 0  16 2 0  16.5 2 0  17 2 0  17.5 2 0  18 2 0  18.5 2 0  19 2 0  19.5 2 0  20 2 0  0 2.5 0  0.5 2.5 0  1 2.5 0  1.5 2.5 0  2 2.5 0  2.5 2.5 0  3 2.5 0  3.5 2.5 0  4 2.5 0  4.5 2.5 0  5 2.5 0  5.5 2.5 0  6 2.5 0  6.5 2.5 0  7 2.5 0  7.5 2.5 0  8 2.5 0  8.5 2.5 0  9 2.5 0  9.5 2.5 0  10 2.5 0  10.5 2.5 0  11 2.5 0  11.5 2.5 0  12 2.5 0  12.5 2.5 0  13 2.5 0  13.5 2.5 0  14 2.5 0  14.5 2.5 0  15 2.5 0  15.5 2.5 0  16 2.5 0  16.5 2.5 0  17 2.5 0  17.5 2.5 0  18 2.5 0  18.5 2.5 0  19 2.5 0  19.5 2.5 0  20 2.5 0  0 3 0  0.5 3 0  1 3 0  1.5 3 0  2 3 0  2.5 3 0  3 3 0  3.5 3 0  4 3 0  4.5 3 0  5 3 0  5.5 3 0  6 3 0  6.5 3 0  7 3 0  7.5 3 0  8 3 0  8.5 3 0  9 3 0  9.5 3 0  10 3 0  10.5 3 0  11 3 0  11.5 3 0  12 3 0  12.5 3 0  13 3 0  13.5 3 0  14 3 0  14.5 3 0  15 3 0  15.5 3 0  16 3 0  16.5 3 0  17 3 0  17.5 3 0  18 3 0  18.5 3 0  19 3 0  19.5 3 0  20 3 0  0 3.5 0  0.5 3.5 0  1 3.5 0  1.5 3.5 0  2 3.5 0  2.5 3.5 0  3 3.5 0  3.5 3.5 0  4 3.5 0  4.5 3.5 0  5 3.5 0  5.5 3.5 0  6 3.5 0  6.5 3.5 0  7 3.5 0  7.5 3.5 0  8 3.5 0  8.5 3.5 0  9 3.5 0  9.5 3.5 0  10 3.5 0  10.5 3.5 0  11 3.5 0  11.5 3.5 0  12 3.5 0  12.5 3.5 0  13 3.5 0  13.5 3.5 0  14 3.5 0  14.5 3.5 0  15 3.5 0  15.5 3.5 0  16 3.5 0  16.5 3.5 0  17 3.5 0  17.5 3.5 0  18 3.5 0  18.5 3.5 0  19 3.5 0  19.5 3.5 0  20 3.5 0  0 4 0  0.5 4 0  1 4 0  1.5 4 0  2 4 0  2.5 4 0  3 4 0  3.5 4 0  4 4 0  4.5 4 0  5 4 0  5.5 4 0  6 4 0  6.5 4 0  7 4 0  7.5 4 0  8 4 0  8.5 4 0  9 4 0  9.5 4 0  10 4 0  10.5 4 0  11 4 0  11.5 4 0  12 4 0  12.5 4 0  13 4 0  13.5 4 0  14 4 0  14.5 4 0  15 4 0  15.5 4 0  16 4 0  16.5 4 0  17 4 0  17.5 4 0  18 4 0  18.5 4 0  19 4 0  19.5 4 0  20 4 0  0 4.5 0  0.5 4.5 0  1 4.5 0  1.5 4.5 0  2 4.5 0  2.5 4.5 0  3 4.5 0  3.5 4.5 0  4 4.5 0  4.5 4.5 0  5 4.5 0  5.5 4.5 0  6 4.5 0  6.5 4.5 0  7 4.5 0  7.5 4.5 0  8 4.5 0  8.5 4.5 0  9 4.5 0  9.5 4.5 0  10 4.5 0  10.5 4.5 0  11 4.5 0  11.5 4.5 0  12 4.5 0  12.5 4.5 0  13 4.5 0  13.5 4.5 0  14 4.5 0  14.5 4.5 0  15 4.5 0  15.5 4.5 0  16 4.5 0  16.5 4.5 0  17 4.5 0  17.5 4.5 0  18 4.5 0  18.5 4.5 0  19 4.5 0  19.5 4.5 0  20 4.5 0  0 5 0  0.5 5 0  1 5 0  1.5 5 0  2 5 0  2.5 5 0  3 5 0  3.5 5 0  4 5 0  4.5 5 0  5 5 0  5.5 5 0  6 5 0  6.5 5 0  7 5 0  7.5 5 0  8 5 0  8.5 5 0  9 5 0  9.5 5 0  10 5 0  10.5 5 0  11 5 0  11.5 5 0  12 5 0  12.5 5 0  13 5 0  13.5 5 0  14 5 0  14.5 5 0  15 5 0  15.5 5 0  16 5 0  16.5 5 0  17 5 0  17.5 5 0  18 5 0  18.5 5 0  19 5 0  19.5 5 0  20 5 0  0 5.5 0  0.5 5.5 0  1 5.5 0  1.5 5.5 0  2 5.5 0  2.5 5.5 0  3 5.5 0  3.5 5.5 0  4 5.5 0  4.5 5.5 0  5 5.5 0  5.5 5.5 0  6 5.5 0  6.5 5.5 0  7 5.5 0  7.5 5.5 0  8 5.5 0  8.5 5.5 0  9 5.5 0  9.5 5.5 0  10 5.5 0  10.5 5.5 0  11 5.5 0  11.5 5.5 0  12 5.5 0  12.5 5.5 0  13 5.5 0  13.5 5.5 0  14 5.5 0  14.5 5.5 0  15 5.5 0  15.5 5.5 0  16 5.5 0  16.5 5.5 0  17 5.5 0  17.5 5.5 0  18 5.5 0  18.5 5.5 0  19 5.5 0  19.5 5.5 0  20 5.5 0  0 6 0  0.5 6 0  1 6 0  1.5 6 0  2 6 0  2.5 6 0  3 6 0  3.5 6 0  4 6 0  4.5 6 0  5 6 0  5.5 6 0  6 6 0  6.5 6 0  7 6 0  7.5 6 0  8 6 0  8.5 6 0  9 6 0  9.5 6 0  10 6 0  10.5 6 0  11 6 0  11.5 6 0  12 6 0  12.5 6 0  13 6 0  13.5 6 0  14 6 0  14.5 6 0  15 6 0  15.5 6 0  16 6 0  16.5 6 0  17 6 0  17.5 6 0  18 6 0  18.5 6 0  19 6 0  19.5 6 0  20 6 0  0 6.5 0  0.5 6.5 0  1 6.5 0  1.5 6.5 0  2 6.5 0  2.5 6.5 0  3 6.5 0  3.5 6.5 0  4 6.5 0  4.5 6.5 0  5 6.5 0  5.5 6.5 0  6 6.5 0  6.5 6.5 0  7 6.5 0  7.5 6.5 0  8 6.5 0  8.5 6.5 0  9 6.5 0  9.5 6.5 0  10 6.5 0  10.5 6.5 0  11 6.5 0  11.5 6.5 0  12 6.5 0  12.5 6.5 0  13 6.5 0  13.5 6.5 0  14 6.5 0  14.5 6.5 0  15 6.5 0  15.5 6.5 0  16 6.5 0  16.5 6.5 0  17 6.5 0  17.5 6.5 0  18 6.5 0  18.5 6.5 0  19 6.5 0  19.5 6.5 0  20 6.5 0  0 7 0  0.5 7 0  1 7 0  1.5 7 0  2 7 0  2.5 7 0  3 7 0  3.5 7 0  4 7 0  4.5 7 0  5 7 0  5.5 7 0  6 7 0  6.5 7 0  7 7 0  7.5 7 0  8 7 0  8.5 7 0  9 7 0  9.5 7 0  10 7 0  10.5 7 0  11 7 0  11.5 7 0  12 7 0  12.5 7 0  13 7 0  13.5 7 0  14 7 0  14.5 7 0  15 7 0  15.5 7 0  16 7 0  16.5 7 0  17 7 0  17.5 7 0  18 7 0  18.5 7 0  19 7 0  19.5 7 0  20 7 0  0 7.5 0  0.5 7.5 0  1 7.5 0  1.5 7.5 0  2 7.5 0  2.5 7.5 0  3 7.5 0  3.5 7.5 0  4 7.5 0  4.5 7.5 0  5 7.5 0  5.5 7.5 0  6 7.5 0  6.5 7.5 0  7 7.5 0  7.5 7.5 0  8 7.5 0  8.5 7.5 0  9 7.5 0  9.5 7.5 0  10 7.5 0  10.5 7.5 0  11 7.5 0  11.5 7.5 0  12 7.5 0  12.5 7.5 0  13 7.5 0  13.5 7.5 0  14 7.5 0  14.5 7.5 0  15 7.5 0  15.5 7.5 0  16 7.5 0  16.5 7.5 0  17 7.5 0  17.5 7.5 0  18 7.5 0  18.5 7.5 0  19 7.5 0  19.5 7.5 0  20 7.5 0  0 8 0  0.5 8 0  1 8 0  1.5 8 0  2 8 0  2.5 8 0  3 8 0  3.5 8 0  4 8 0  4.5 8 0  5 8 0  5.5 8 0  6 8 0  6.5 8 0  7 8 0  7.5 8 0  8 8 0  8.5 8 0  9 8 0  9.5 8 0  10 8 0  10.5 8 0  11 8 0  11.5 8 0  12 8 0  12.5 8 0  13 8 0  13.5 8 0  14 8 0  14.5 8 0  15 8 0  15.5 8 0  16 8 0  16.5 8 0  17 8 0  17.5 8 0  18 8 0  18.5 8 0  19 8 0  19.5 8 0  20 8 0  0 8.5 0  0.5 8.5 0  1 8.5 0  1.5 8.5 0  2 8.5 0  2.5 8.5 0  3 8.5 0  3.5 8.5 0  4 8.5 0  4.5 8.5 0  5 8.5 0  5.5 8.5 0  6 8.5 0  6.5 8.5 0  7 8.5 0  7.5 8.5 0  8 8.5 0  8.5 8.5 0  9 8.5 0  9.5 8.5 0  10 8.5 0  10.5 8.5 0  11 8.5 0  11.5 8.5 0  12 8.5 0  12.5 8.5 0  13 8.5 0  13.5 8.5 0  14 8.5 0  14.5 8.5 0  15 8.5 0  15.5 8.5 0  16 8.5 0  16.5 8.5 0  17 8.5 0  17.5 8.5 0  18 8.5 0  18.5 8.5 0  19 8.5 0  19.5 8.5 0  20 8.5 0  0 9 0  0.5 9 0  1 9 0  1.5 9 0  2 9 0  2.5 9 0  3 9 0  3.5 9 0  4 9 0  4.5 9 0  5 9 0  5.5 9 0  6 9 0  6.5 9 0  7 9 0  7.5 9 0  8 9 0  8.5 9 0  9 9 0  9.5 9 0  10 9 0  10.5 9 0  11 9 0  11.5 9 0  12 9 0  12.5 9 0  13 9 0  13.5 9 0  14 9 0  14.5 9 0  15 9 0  15.5 9 0  16 9 0  16.5 9 0  17 9 0  17.5 9 0  18 9 0  18.5 9 0  19 9 0  19.5 9 0  20 9 0  0 9.5 0  0.5 9.5 0  1 9.5 0  1.5 9.5 0  2 9.5 0  2.5 9.5 0  3 9.5 0  3.5 9.5 0  4 9.5 0  4.5 9.5 0  5 9.5 0  5.5 9.5 0  6 9.5 0  6.5 9.5 0  7 9.5 0  7.5 9.5 0  8 9.5 0  8.5 9.5 0  9 9.5 0  9.5 9.5 0  10 9.5 0  10.5 9.5 0  11 9.5 0  11.5 9.5 0  12 9.5 0  12.5 9.5 0  13 9.5 0  13.5 9.5 0  14 9.5 0  14.5 9.5 0  15 9.5 0  15.5 9.5 0  16 9.5 0  16.5 9.5 0  17 9.5 0  17.5 9.5 0  18 9.5 0  18.5 9.5 0  19 9.5 0  19.5 9.5 0  20 9.5 0  0 10 0  0.5 10 0  1 10 0  1.5 10 0  2 10 0  2.5 10 0  3 10 0  3.5 10 0  4 10 0  4.5 10 0  5 10 0  5.5 10 0  6 10 0  6.5 10 0  7 10 0  7.5 10 0  8 10 0  8.5 10 0  9 10 0  9.5 10 0  10 10 0  10.5 10 0  11 10 0  11.5 10 0  12 10 0  12.5 10 0  13 10 0  13.5 10 0  14 10 0  14.5 10 0  15 10 0  15.5 10 0  16 10 0  16.5 10 0  17 10 0  17.5 10 0  18 10 0  18.5 10 0  19 10 0  19.5 10 0  20 10 0  0 10.5 0  0.5 10.5 0  1 10.5 0  1.5 10.5 0  2 10.5 0  2.5 10.5 0  3 10.5 0  3.5 10.5 0  4 10.5 0  4.5 10.5 0  5 10.5 0  5.5 10.5 0  6 10.5 0  6.5 10.5 0  7 10.5 0  7.5 10.5 0  8 10.5 0  8.5 10.5 0  9 10.5 0  9.5 10.5 0  10 10.5 0  10.5 10.5 0  11 10.5 0  11.5 10.5 0  12 10.5 0  12.5 10.5 0  13 10.5 0  13.5 10.5 0  14 10.5 0  14.5 10.5 0  15 10.5 0  15.5 10.5 0  16 10.5 0  16.5 10.5 0  17 10.5 0  17.5 10.5 0  18 10.5 0  18.5 10.5 0  19 10.5 0  19.5 10.5 0  20 10.5 0  0 11 0  0.5 11 0  1 11 0  1.5 11 0  2 11 0  2.5 11 0  3 11 0  3.5 11 0  4 11 0  4.5 11 0  5 11 0  5.5 11 0  6 11 0  6.5 11 0  7 11 0  7.5 11 0  8 11 0  8.5 11 0  9 11 0  9.5 11 0  10 11 0  10.5 11 0  11 11 0  11.5 11 0  12 11 0  12.5 11 0  13 11 0  13.5 11 0  14 11 0  14.5 11 0  15 11 0  15.5 11 0  16 11 0  16.5 11 0  17 11 0  17.5 11 0  18 11 0  18.5 11 0  19 11 0  19.5 11 0  20 11 0  0 11.5 0  0.5 11.5 0  1 11.5 0  1.5 11.5 0  2 11.5 0  2.5 11.5 0  3 11.5 0  3.5 11.5 0  4 11.5 0  4.5 11.5 0  5 11.5 0  5.5 11.5 0  6 11.5 0  6.5 11.5 0  7 11.5 0  7.5 11.5 0  8 11.5 0  8.5 11.5 0  9 11.5 0  9.5 11.5 0  10 11.5 0  10.5 11.5 0  11 11.5 0  11.5 11.5 0  12 11.5 0  12.5 11.5 0  13 11.5 0  13.5 11.5 0  14 11.5 0  14.5 11.5 0  15 11.5 0  15.5 11.5 0  16 11.5 0  16.5 11.5 0  17 11.5 0  17.5 11.5 0  18 11.5 0  18.5 11.5 0  19 11.5 0  19.5 11.5 0  20 11.5 0  0 12 0  0.5 12 0  1 12 0  1.5 12 0  2 12 0  2.5 12 0  3 12 0  3.5 12 0  4 12 0  4.5 12 0  5 12 0  5.5 12 0  6 12 0  6.5 12 0  7 12 0  7.5 12 0  8 12 0  8.5 12 0  9 12 0  9.5 12 0  10 12 0  10.5 12 0  11 12 0  11.5 12 0  12 12 0  12.5 12 0  13 12 0  13.5 12 0  14 12 0  14.5 12 0  
[...]
<PointData  Vectors="f_5623-0"> 
<DataArray  type="Float64"  Name="f_5623-0"  NumberOfComponents="3" format="ascii">0.0000000000000000e+00 0.0000000000000000e+00 0.0000000000000000e+00  1.3119121140967051e-06 0.0000000000000000e+00 0.0000000000000000e+00  6.3414322553449751e-06 0.0000000000000000e+00 0.0000000000000000e+00  2.0024464747124679e-05 0.0000000000000000e+00 0.0000000000000000e+00  4.6653829071185872e-05 0.0000000000000000e+00 0.0000000000000000e+00  9.0436045878193456e-05 0.0000000000000000e+00 0.0000000000000000e+00  1.5550574220946501e-04 0.0000000000000000e+00 0.0000000000000000e+00  2.4590196518863749e-04 0.0000000000000000e+00 0.0000000000000000e+00  3.6554205169924141e-04 0.0000000000000000e+00 0.0000000000000000e+00  5.1819349702565882e-04 0.0000000000000000e+00 0.0000000000000000e+00  7.0744239626461592e-04 0.0000000000000000e+00 0.0000000000000000e+00  9.3665693811924311e-04 0.0000000000000000e+00 0.0000000000000000e+00  1.2089440280452276e-03 0.0000000000000000e+00 0.0000000000000000e+00  1.5270963540925135e-03 0.0000000000000000e+00 0.0000000000000000e+00  1.8935260354379635e-03 0.0000000000000000e+00 0.0000000000000000e+00  2.3101792865542342e-03 0.0000000000000000e+00 0.0000000000000000e+00  2.7784241106163662e-03 0.0000000000000000e+00 0.0000000000000000e+00  3.2988996805939407e-03 0.0000000000000000e+00 0.0000000000000000e+00  3.8713115182008621e-03 0.0000000000000000e+00 0.0000000000000000e+00  4.4941505637836835e-03 0.0000000000000000e+00 0.0000000000000000e+00  5.1643064915222600e-03 0.0000000000000000e+00 0.0000000000000000e+00  5.8765359932708480e-03 0.0000000000000000e+00 0.0000000000000000e+00  6.6227352484071883e-03 0.0000000000000000e+00 0.0000000000000000e+00  7.3909527690564272e-03 0.0000000000000000e+00 0.0000000000000000e+00  8.1640651585899414e-03 0.0000000000000000e+00 0.0000000000000000e+00  8.9180257600156715e-03 0.0000000000000000e+00 0.0000000000000000e+00  9.6195875527564645e-03 0.0000000000000000e+00 0.0000000000000000e+00  1.0223401307743577e-02 0.0000000000000000e+00 0.0000000000000000e+00  1.0668403993400886e-02 0.0000000000000000e+00 0.0000000000000000e+00  1.0873448539694424e-02 0.0000000000000000e+00 0.0000000000000000e+00  1.0732193304134467e-02 0.0000000000000000e+00 0.0000000000000000e+00  1.0107376571781549e-02 0.0000000000000000e+00 0.0000000000000000e+00  8.8247533505701817e-03 0.0000000000000000e+00 0.0000000000000000e+00  6.6671653752260647e-03 0.0000000000000000e+00 0.0000000000000000e+00  3.3694324523311195e-03 0.0000000000000000e+00 0.0000000000000000e+00  -1.3850451946852234e-03 0.0000000000000000e+00 0.0000000000000000e+00  -7.9649596713488018e-03 0.0000000000000000e+00 0.0000000000000000e+00  -1.6788053261984952e-02 0.0000000000000000e+00 0.0000000000000000e+00  -2.8313569389469134e-02 0.0000000000000000e+00 0.0000000000000000e+00  -4.3029513377685243e-02 0.0000000000000000e+00 0.0000000000000000e+00  -6.1432397139700987e-02 0.0000000000000000e+00 0.0000000000000000e+00  0.0000000000000000e+00 1.3119121158673248e-06 0.0000000000000000e+00  -1.4525102155839830e-06 -1.4525102167000859e-06 0.0000000000000000e+00  1.5961715991170873e-06 -8.2302176790748666e-06 0.0000000000000000e+00  1.3199321711266463e-05 -1.9088943305231033e-05 0.0000000000000000e+00  3.7692481460446344e-05 -3.4127250265343253e-05 0.0000000000000000e+00  7.9320865869038801e-05 -5.3335689208378428e-05 0.0000000000000000e+00  1.4223421649428084e-04 -7.6645542764387331e-05 0.0000000000000000e+00  2.3047827698602667e-04 -1.0395369033244274e-04 0.0000000000000000e+00  3.4797489748644234e-04 -1.3513018268104858e-04 0.0000000000000000e+00  4.9849604692934471e-04 -1.7001937379598758e-04 0.0000000000000000e+00  6.8563303118265298e-04 -2.0843890678959876e-04 0.0000000000000000e+00  9.1276030578729228e-04 -2.5017797931221073e-04 0.0000000000000000e+00  1.1829922464181991e-03 -2.9499536569848022e-04 0.0000000000000000e+00  1.4991302815160036e-03 -3.4261738829094776e-04 0.0000000000000000e+00  1.8635965550085854e-03 -3.9273595248291720e-04 0.0000000000000000e+00  2.2783485577151869e-03 -4.4500674482650165e-04 0.0000000000000000e+00  2.7447667369999537e-03 -4.9904769889751513e-04 0.0000000000000000e+00  3.2635037346408703e-03 -5.5443784582564126e-04 0.0000000000000000e+00  3.8342793511370087e-03 -6.1071668229075967e-04 0.0000000000000000e+00  4.4555993159473171e-03 -6.6738420549034190e-04 0.0000000000000000e+00  5.1243682031726773e-03 -7.2390178212412425e-04 0.0000000000000000e+00  5.8353572020495717e-03 -7.7969403452195132e-04 0.0000000000000000e+00  6.5804759497186151e-03 -8.3415194074538143e-04 0.0000000000000000e+00  7.3477846152299039e-03 -8.8663735385174057e-04 0.0000000000000000e+00  8.1201687906874154e-03 -9.3648914485404031e-04 0.0000000000000000e+00  8.8735872155520212e-03 -9.8303115880922173e-04 0.0000000000000000e+00  9.5747937912740288e-03 -1.0255821366873018e-03 0.0000000000000000e+00  1.0178435065171378e-02 -1.0634676858031153e-03 0.0000000000000000e+00  1.0623438435728067e-02 -1.0960342646851521e-03 0.0000000000000000e+00  1.0828642544188225e-02 -1.1226649637538914e-03 0.0000000000000000e+00  1.0687688628188073e-02 -1.1427965875835321e-03 0.0000000000000000e+00  1.0063298588665667e-02 -1.1559371539846726e-03 0.0000000000000000e+00  8.7812172513135733e-03 -1.1616824046098149e-03 0.0000000000000000e+00  6.6242894301127234e-03 -1.1597292859628241e-03 0.0000000000000000e+00  3.3273585720380765e-03 -1.1498836624327987e-03 0.0000000000000000e+00  -1.4261267062564487e-03 -1.1320588181075973e-03 0.0000000000000000e+00  -8.0047922790187024e-03 -1.1062603246084065e-03 0.0000000000000000e+00  -1.6826338627444457e-02 -1.0725496607932416e-03 0.0000000000000000e+00  -2.8350175058478116e-02 -1.0309652610272552e-03 0.0000000000000000e+00  -4.3065616539119229e-02 -9.8132691454637442e-04 0.0000000000000000e+00  -6.1477074543819100e-02 -9.2269332601247823e-04 0.0000000000000000e+00  0.0000000000000000e+00 6.3414322567155032e-06 0.0000000000000000e+00  -8.2302176805932053e-06 1.5961715983787126e-06 0.0000000000000000e+00  -1.1712169114986447e-05 -1.1712169113594602e-05 0.0000000000000000e+00  -6.5644915862723001e-06 -3.3471634566985972e-05 0.0000000000000000e+00  1.1475354023051135e-05 -6.3641909312849853e-05 0.0000000000000000e+00  4.6641696413000363e-05 -1.0213549074124267e-04 0.0000000000000000e+00  1.0309171331638187e-04 -1.4880982400424249e-04 0.0000000000000000e+00  1.8488193288585189e-04 -2.0346725575849509e-04 0.0000000000000000e+00  2.9594605184277026e-04 -2.6585658765710231e-04 0.0000000000000000e+00  4.4006944988852971e-04 -3.3567321581553979e-04 0.0000000000000000e+00  6.2085919250888175e-04 -4.1255753808424207e-04 0.0000000000000000e+00  8.4170845403202870e-04 -4.9609214648431671e-04 0.0000000000000000e+00  1.1057536972174779e-03 -5.8579833676004086e-04 0.0000000000000000e+00  1.4158220478418121e-03 -6.8113233122709380e-04 0.0000000000000000e+00  1.7743650558483600e-03 -7.8148151171921615e-04 0.0000000000000000e+00  2.1833732873182054e-03 -8.8616091370190481e-04 0.0000000000000000e+00  2.6442637492720355e-03 -9.9441022295715452e-04 0.0000000000000000e+00  3.1577287807612259e-03 -1.1053915272129316e-03 0.0000000000000000e+00  3.7235304867713902e-03 -1.2181880964906274e-03 0.0000000000000000e+00  4.3402187700482039e-03 -1.3318044919114944e-03 0.0000000000000000e+00  5.0047432763611300e-03 -1.4451683285464697e-03 0.0000000000000000e+00  5.7119199427231324e-03 -1.5571340395973150e-03 0.0000000000000000e+00  6.4537013459224288e-03 -1.6664890018547162e-03 0.0000000000000000e+00  7.2181870474148750e-03 -1.7719623801149081e-03 0.0000000000000000e+00  7.9882965250904804e-03 -1.8722370227842399e-03 0.0000000000000000e+00  8.7400147929782204e-03 -1.9659646834607096e-03 0.0000000000000000e+00  9.4401122956316186e-03 -2.0517847423013815e-03 0.0000000000000000e+00  1.0043240454232161e-02 -2.1283464442851856e-03 0.0000000000000000e+00  1.0488318390003283e-02 -2.1943344469056562e-03 0.0000000000000000e+00  1.0694162630858251e-02 -2.2484971648465781e-03 0.0000000000000000e+00  1.0554378948635319e-02 -2.2896770061222745e-03 0.0000000000000000e+00  9.9316423981808937e-03 -2.3168411076609175e-03 0.0000000000000000e+00  8.6516431635202500e-03 -2.3291105996499058e-03 0.0000000000000000e+00  6.4971685306835615e-03 -2.3257857576312125e-03 0.0000000000000000e+00  3.2030067824631633e-03 -2.3063636105194497e-03 0.0000000000000000e+00  -1.5474426813728414e-03 -2.2705435191184768e-03 0.0000000000000000e+00  -8.1228503894130479e-03 -2.2182144851575357e-03 0.0000000000000000e+00  -1.6940967485767001e-02 -2.1494147176424733e-03 0.0000000000000000e+00  -2.8461279041733564e-02 -2.0642501088421173e-03 0.0000000000000000e+00  -4.3173162365061891e-02 -1.9627688257385263e-03 0.0000000000000000e+00  -6.1580207586888584e-02 -1.8449039084408501e-03 0.0000000000000000e+00  0.0000000000000000e+00 2.0024464748580823e-05 0.0000000000000000e+00  -1.9088943303204795e-05 1.3199321711069368e-05 0.0000000000000000e+00  -3.3471634564452022e-05 -6.5644915871583635e-06 0.0000000000000000e+00  -3.9136092224362410e-05 -3.9136092225536655e-05 0.0000000000000000e+00  -3.1880121823416467e-05 -8.4392636526102065e-05 0.0000000000000000e+00  -7.4859130619800049e-06 -1.4216685309830055e-04 0.0000000000000000e+00  3.8203352847816347e-05 -2.1222626099959261e-04 0.0000000000000000e+00  1.0925266307786873e-04 -2.9426879730710178e-04 0.0000000000000000e+00  2.0961024835394496e-04 -3.8791962392820795e-04 0.0000000000000000e+00  3.4308121573942770e-04 -4.9272731114192244e-04 0.0000000000000000e+00  5.1329753649123275e-04 -6.0815934077546464e-04 0.0000000000000000e+00  7.2368276711099171e-04 -7.3359700026369337e-04 0.0000000000000000e+00  9.7740957055687718e-04 -8.6832983018482164e-04 0.0000000000000000e+00  1.2773473503125529e-03 -1.0115498643939712e-03 0.0000000000000000e+00  1.6259961251272417e-03 -1.1623459475467804e-03 0.0000000000000000e+00  2.0254010480009674e-03 -1.3196984452124130e-03 0.0000000000000000e+00  2.4770395371205940e-03 -1.4824746892824006e-03 0.0000000000000000e+00  2.9816696177807651e-03 -1.6494255325736362e-03 0.0000000000000000e+00  3.5391235161120601e-03 -1.8191834208926402e-03 0.0000000000000000e+00  4.1480245241370941e-03 -1.9902624265889087e-03 0.0000000000000000e+00  4.8053974195290906e-03 -2.1610607190283978e-03 0.0000000000000000e+00  5.5061331063504283e-03 -2.3298659702969808e-03 0.0000000000000000e+00  6.2422566666008811e-03 -2.4948642004065454e-03 0.0000000000000000e+00  7.0019350372273175e-03 -2.6541525476081419e-03 0.0000000000000000e+00  7.7681469590155372e-03 -2.8057563953048830e-03 0.0000000000000000e+00  8.5169254059007885e-03 -2.9476511874880072e-03 0.0000000000000000e+00  9.2150742533404929e-03 -3.0777891081769232e-03 0.0000000000000000e+00  9.8172608090218959e-03 -3.1941305796476939e-03 0.0000000000000000e+00  1.0262400052061643e-02 -3.2946802446751373e-03 0.0000000000000000e+00  1.0469282763866019e-02 -3.3775267420431874e-03 0.0000000000000000e+00  1.0331467087767247e-02 -3.4408851710654559e-03 0.0000000000000000e+00  9.7115599127910058e-03 -3.4831406801862416e-03 0.0000000000000000e+00  8.4351658396569339e-03 -3.5028911096227256e-03 0.0000000000000000e+00  6.2849739265678876e-03 -3.4989860426627535e-03 0.0000000000000000e+00  2.9956675951857748e-03 -3.4705588970185119e-03 0.0000000000000000e+00  -1.7494584726727260e-03 -3.4170476911690034e-03 0.0000000000000000e+00  -8.3191715880687970e-03 -3.3381988085078780e-03 0.0000000000000000e+00  -1.7131300265191669e-02 -3.2340470341441657e-03 0.0000000000000000e+00  -2.8645364464521723e-02 -3.1048667834283612e-03 0.0000000000000000e+00  -4.3350681238517749e-02 -2.9510978631384810e-03 0.0000000000000000e+00  -6.1750589123193485e-02 -2.7732515095330893e-03 0.0000000000000000e+00  0.0000000000000000e+00 4.6653829071095388e-05 0.0000000000000000e+00  -3.4127250264211827e-05 3.7692481458826018e-05 0.0000000000000000e+00  -6.3641909311813505e-05 1.1475354021504448e-05 0.0000000000000000e+00  -8.4392636526034817e-05 -3.1880121822330381e-05 0.0000000000000000e+00  -9.2196189547047338e-05 -9.2196189546290647e-05 0.0000000000000000e+00  -8.2846594448236213e-05 -1.6923588469329679e-04 0.0000000000000000e+00  -5.2185821316063034e-05 -2.6268313016523519e-04 0.0000000000000000e+00  3.8613043767384073e-06 -3.7213492059549267e-04 0.0000000000000000e+00  8.9260765359452365e-05 -4.9709554361501143e-04 0.0000000000000000e+00  2.0784285737754786e-04 -6.3697042325185451e-04 0.0000000000000000e+00  3.6327243901672080e-04 -7.9105920226297632e-04 0.0000000000000000e+00  5.5901403076577040e-04 -9.5854819123091623e-04 0.0000000000000000e+00  7.9828970517045674e-04 -1.1385024177589073e-03 0.0000000000000000e+00  1.0840269938003069e-03 -1.3298575485964992e-03 0.0000000000000000e+00  1.4187928684207915e-03 -1.5314120010262930e-03 0.0000000000000000e+00  1.8047081391582276e-03 -1.7418196105416037e-03 0.0000000000000000e+00  2.2433341813342641e-03 -1.9595832760317573e-03 0.0000000000000000e+00  2.7355205364501555e-03 -2.1830500581620986e-03 0.0000000000000000e+00  3.2811973764249698e-03 -2.4104082601128988e-03 0.0000000000000000e+00  3.8790908027113431e-03 -2.6396870690265344e-03 0.0000000000000000e+00  4.5263312232488636e-03 -2.8687593763283576e-03 0.0000000000000000e+00  5.2179154470070122e-03 -3.0953484203652321e-03 0.0000000000000000e+00  5.9459716820494807e-03 -3.3170388954587367e-03 0.0000000000000000e+00  6.6987636813197818e-03 -3.5312931394227490e-03 0.0000000000000000e+00  7.4593567588679436e-03 -3.7354729341421847e-03 0.0000000000000000e+00  8.2038560213276834e-03 -3.9268673225750636e-03 0.0000000000000000e+00  8.8991187817423593e-03 -4.1027266503947685e-03 0.0000000000000000e+00  9.4998430655400118e-03 -4.2603027803662071e-03 0.0000000000000000e+00  9.9449484139865832e-03 -4.3968951055811207e-03 0.0000000000000000e+00  1.0153201576467159e-02 -4.5099016177365748e-03 0.0000000000000000e+00  1.0018107037757868e-02 -4.5968738877130615e-03 0.0000000000000000e+00  9.4021891141403153e-03 -4.6555744034099868e-03 0.0000000000000000e+00  8.1309435638384081e-03 -4.6840342796358571e-03 0.0000000000000000e+00  5.9869288950266369e-03 -4.6806088600146794e-03 0.0000000000000000e+00  2.7046825809724229e-03 -4.6440280746865648e-03 0.0000000000000000e+00  -2.0326541092484498e-03 -4.5734375020754702e-03 0.0000000000000000e+00  -8.5939995480885292e-03 -4.4684249577398513e-03 0.0000000000000000e+00  -1.7397318476675534e-02 -4.3290264808556276e-03 0.0000000000000000e+00  -2.8902236028089005e-02 -4.1557050635274871e-03 0.0000000000000000e+00  -4.3598118327320211e-02 -3.9492920188996397e-03 0.0000000000000000e+00  -6.1988219130348111e-02 -3.7108580066069099e-03 0.0000000000000000e+00  0.0000000000000000e+00 9.0436045879361277e-05 0.0000000000000000e+00  -5.3335689208079053e-05 7.9320865869253704e-05 0.0000000000000000e+00  -1.0213549074347533e-04 4.6641696413262022e-05 0.0000000000000000e+00  -1.4216685309998965e-04 -7.4859130603688737e-06 0.0000000000000000e+00  -1.6923588469302007e-04 -8.2846594450575596e-05 0.0000000000000000e+00  -1.7914247494590156e-04 -1.7914247494802487e-04 0.0000000000000000e+00  -1.6772560845082363e-04 -2.9598097198076405e-04 0.0000000000000000e+00  -1.3089781408186717e-04 -4.3286513055778214e-04 0.0000000000000000e+00  -6.4671859836859080e-05 -5.8918560968434239e-04 0.0000000000000000e+00  3.4813026104175577e-05 -7.6421234998402072e-04 0.0000000000000000e+00  1.7126199433739299e-04 -9.5708543018078844e-04 0.0000000000000000e+00  3.4819031417484820e-04 -1.1668051772237167e-03 0.0000000000000000e+00  5.6888182117708827e-04 -1.3922217796145811e-03 0.0000000000000000e+00  8.3633721836417726e-04 -1.6320247332289714e-03 0.0000000000000000e+00  1.1532082245219338e-03 -1.8847325066952594e-03 0.0000000000000000e+00  1.5217118499089495e-03 -2.1486828728073883e-03 0.0000000000000000e+00  1.9435166472487938e-03 -2.4220244174262863e-03 0.0000000000000000e+00  2.4195894184229150e-03 -2.7027098058300370e-03 0.0000000000000000e+00  2.9499863021085855e-03 -2.9884914543466486e-03 0.0000000000000000e+00  3.5335661547926272e-03 -3.2769203176398246e-03 0.0000000000000000e+00  4.1675964192518658e-03 -3.5653485521623400e-03 0.0000000000000000e+00  4.8472120893450462e-03 -3.8509368469881130e-03 0.0000000000000000e+00  5.5646769539605991e-03 -4.1306672140591031e-03 0.0000000000000000e+00  6.3083834009706853e-03 -4.4013619908833401e-03 0.0000000000000000e+00  7.0615135937690809e-03 -4.6597097180818853e-03 0.0000000000000000e+00  7.8002725212432348e-03 -4.9022984036448626e-03 0.0000000000000000e+00  8.4915951208117766e-03 -5.1256564687059882e-03 0.0000000000000000e+00  9.0902296965010478e-03 -5.3263013886095754e-03 0.0000000000000000e+00  9.5351142203201778e-03 -5.5007957079356911e-03 0.0000000000000000e+00  9.7449985353644762e-03 -5.6458097384946308e-03 0.0000000000000000e+00  9.6133328297007825e-03 -5.7581898682711992e-03 0.0000000000000000e+00  9.0025494678445030e-03 -5.8350310307008881e-03 0.0000000000000000e+00  7.7380163380480768e-03 -5.8737514921367914e-03 0.0000000000000000e+00  5.6021319295288868e-03 -5.8721676444319854e-03 0.0000000000000000e+00  2.3292472202241787e-03 -5.8285658198994712e-03 0.0000000000000000e+00  -2.3977021027802576e-03 -5.7417671484970957e-03 0.0000000000000000e+00  -8.9478500743790258e-03 -5.6111801128284136e-03 0.0000000000000000e+00  -1.7739376325328102e-02 -5.4368338234815636e-03 0.0000000000000000e+00  -2.9232105299918733e-02 -5.2193830807685535e-03 0.0000000000000000e+00  -4.3915555343266278e-02 -4.9600733276700436e-03 0.0000000000000000e+00  -6.2292980691517882e-02 -4.6606525684092905e-03 0.0000000000000000e+00  0.0000000000000000e+00 1.5550574220679343e-04 0.0000000000000000e+00  -7.6645542763578923e-05 1.4223421649251644e-04 0.0000000000000000e+00  -1.4880982400371708e-04 1.0309171331868811e-04 0.0000000000000000e+00  -2.1222626099908564e-04 3.8203352846927383e-05 0.0000000000000000e+00  -2.6268313016422742e-04 -5.2185821318523929e-05 0.0000000000000000e+00  -2.9598097198064717e-04 -1.6772560845177244e-04 0.0000000000000000e+00  -3.0795466412789774e-04 -3.0795466412843572e-04 0.0000000000000000e+00  -2.9450327050475146e-04 -4.7229041260550824e-04 0.0000000000000000e+00  -2.5161579992329059e-04 -6.6001913896309838e-04 0.0000000000000000e+00  -1.7539667031657040e-04 -8.7028549926453352e-04 0.0000000000000000e+00  -6.2093986214212295e-05 -1.1020810889335656e-03 0.0000000000000000e+00  9.1867087357765410e-05 -1.3542321240554527e-03 0.0000000000000000e+00  2.8984354315920861e-04 -1.6253864925690042e-03 0.0000000000000000e+00  5.3492339994433717e-04 -1.9140005409157643e-03 0.0000000000000000e+00  8.2986013949708096e-04 -2.2183260420930114e-03 0.0000000000000000e+00  1.1769869210567490e-03 -2.5363978681188265e-03 0.0000000000000000e+00  1.5781023471038661e-03 -2.8660229701671330e-03 0.0000000000000000e+00  2.0343161852288700e-03 -3.2047713526887050e-03 0.0000000000000000e+00  2.5458388957235985e-03 -3.5499698109496248e-03 0.0000000000000000e+00  3.1116928069804092e-03 -3.8986992779599956e-03 0.0000000000000000e+00  3.7293150738761417e-03 -4.2477966903450909e-03 0.0000000000000000e+00  4.3940129896155701e-03 -4.5938623234241752e-03 0.0000000000000000e+00  5.0982208267649713e-03 -4.9332735534897290e-03 0.0000000000000000e+00  5.8304945250673753e-03 -5.2622059683474593e-03 0.0000000000000000e+00  6.5741671328216613e-03 -5.5766626546395028e-03 0.0000000000000000e+00  7.3055756668428057e-03 -5.8725123338604791e-03 0.0000000000000000e+00  7.9917618339787420e-03 -6.1455367945274716e-03 0.0000000000000000e+00  8.5875491602477021e-03 -6.3914877801915888e-03 0.0000000000000000e+00  9.0319135110185078e-03 -6.6061531551923130e-03 0.0000000000000000e+00  9.2436004598875562e-03 -6.7854318038337086e-03 0.0000000000000000e+00  9.1160103140116768e-03 -6.9254163458868133e-03 0.0000000000000000e+00  8.5114782592889057e-03 -7.0224823792644940e-03 0.0000000000000000e+00  7.2552280342128980e-03 -7.0733825596069888e-03 0.0000000000000000e+00  5.1294694285749128e-03 -7.0753433086989453e-03 0.0000000000000