<?xml version="1.0"?>
<VTKFile type="UnstructuredGrid"  version="0.1"  >
<UnstructuredGrid>
<Piece  NumberOfPoints="1681" NumberOfCells="3200">
<Points>
<DataArray  type="Float64"  NumberOfComponents="3"  format="ascii">0 0 0  0.5 0 0  1 0 0  1.5 0 0  2 0 0  2.5 0 0  3 0 0  3.5 0 0  4 0 0  4.5 0 0  5 0 0  5.5 0 0  6 0 0  6.5 0 0  7 0 0  7.5 0 0  8 0 0  8.5 0 0  9 0 0  9.5 0 0  10 0 0  10.5 0 0  11 0 0  11.5 0 0  12 0 0  12.5 0 0  13 0 0  13.5 0 0  14 0 0  14.5 0 0  15 0 0  15.5 0 0  16 0 0  16.5 0 0  17 0 0  17.5 0 0  18 0 0  18.5 0 0  19 0 0  19.5 0 0  20 0 0  0 0.5 0  0.5 0.5 0  1 0.5 0  1.5 0.5 0  2 0.5 0  2.5 0.5 0  3 0.5 0  3.5 0.5 0  4 0.5 0  4.5 0.5 0  5 0.5 0  5.5 0.5 0  6 0.5 0  6.5 0.5 0  7 0.5 0  7.5 0.5 0  8 0.5 0  8.5 0.5 0  9 0.5 0  9.5 0.5 0  10 0.5 0  10.5 0.5 0  11 0.5 0  11.5 0.5 0  12 0.5 0  12.5 0.5 0  13 0.5 0  13.5 0.5 0  14 0.5 0  14.5 0.5 0  15 0.5 0  15.5 0.5 0  16 0.5 0  16.5 0.5 0  17 0.5 0  17.5 0.5 0  18 0.5 0  18.5 0.5 0  19 0.5 0  19.5 0.5 0  20 0.5 0  0 1 0  0.5 1 0  1 1 0  1.5 1 0  2 1 0  2.5 1 0  3 1 0  3.5 1 0  4 1 0  4.5 1 0  5 1 0  5.5 1 0  6 1 0  6.5 1 0  7 1 0  7.5 1 0  8 1 0  8.5 1 0  9 1 0  9.5 1 0  10 1 0  10.5 1 0  11 1 0  11.5 1 0  12 1 0  12.5 1 0  13 1 0  13.5 1 0  14 1 0  14.5 1 0  15 1 0  15.5 1 0  16 1 0  16.5 1 0  17 1 0  17.5 1 0  18 1 0  18.5 1 0  19 1 0  19.5 1 0  20 1 0  0 1.5 0  0.5 1.5 0  1 1.5 0  1.5 1.5 0  2 1.5 0  2.5 1.5 0  3 1.5 0  3.5 1.5 0  4 1.5 0  4.5 1.5 0  5 1.5 0  5.5 1.5 0  6 1.5 0  6.5 1.5 0  7 1.5 0  7.5 1.5 0  8 1.5 0  8.5 1.5 0  9 1.5 0  9.5 1.5 0  10 1.5 0  10.5 1.5 0  11 1.5 0  11.5 1.5 0  12 1.5 0  12.5 1.5 0  13 1.5 0  13.5 1.5 0  14 1.5 0  14.5 1.5 0  15 1.5 0  15.5 1.5 0  16 1.5 0  16.5 1.5 0  17 1.5 0  17.5 1.5 0  18 1.5 0  18.5 1.5 0  19 1.5 0  19.5 1.5 0  20 1.5 0  0 2 0  0.5 2 0  1 2 0  1.5 2 0  2 2 0  2.5 2 0  3 2 0  3.5 2 0  4 2 0  4.5 2 0  5 2 0  5.5 2 0  6 2 0  6.5 2 0  7 2 0  7.5 2 0  8 2 0  8.5 2 0  9 2 0  9.5 2 0  10 2 0  10.5 2 0  11 2 0  11.5 2 0  12 2 0  12.5 2 0  13 2 0  13.5 2 0  14 2 0  14.5 2 0  15 2 0  15.5 2 0  16 2 0  16.5 2 0  17 2 0  17.5 2 0  18 2 0  18.5 2 0  19 2 0  19.5 2 0  20 2 0  0 2.5 0  0.5 2.5 0  1 2.5 0  1.5 2.5 0  2 2.5 0  2.5 2.5 0  3 2.5 0  3.5 2.5 0  4 2.5 0  4.5 2.5 0  5 2.5 0  5.5 2.5 0  6 2.5 0  6.5 2.5 0  7 2.5 0  7.5 2.5 0  8 2.5 0  8.5 2.5 0  9 2.5 0  9.5 2.5 0  10 2.5 0  10.5 2.5 0  11 2.5 0  11.5 2.5 0  12 2.5 0  12.5 2.5 0  13 2.5 0  13.5 2.5 0  14 2.5 0  14.5 2.5 0  15 2.5 0  15.5 2.5 0  16 2.5 0  16.5 2.5 0  17 2.5 0  17.5 2.5 0  18 2.5 0  18.5 2.5 0  19 2.5 0  19.5 2.5 0  20 2.5 0  0 3 0  0.5 3 0  1 3 0  1.5 3 0  2 3 0  2.5 3 0  3 3 0  3.5 3 0  4 3 0  4.5 3 0  5 3 0  5.5 3 0  6 3 0  6.5 3 0  7 3 0  7.5 3 0  8 3 0  8.5 3 0  9 3 0  9.5 3 0  10 3 0  10.5 3 0  11 3 0  11.5 3 0  12 3 0  12.5 3 0  13 3 0  13.5 3 0  14 3 0  14.5 3 0  15 3 0  15.5 3 0  16 3 0  16.5 3 0  17 3 0  17.5 3 0  18 3 0  18.5 3 0  19 3 0  19.5 3 0  20 3 0  0 3.5 0  0.5 3.5 0  1 3.5 0  1.5 3.5 0  2 3.5 0  2.5 3.5 0  3 3.5 0  3.5 3.5 0  4 3.5 0  4.5 3.5 0  5 3.5 0  5.5 3.5 0  6 3.5 0  6.5 3.5 0  7 3.5 0  7.5 3.5 0  8 3.5 0  8.5 3.5 0  9 3.5 0  9.5 3.5 0  10 3.5 0  10.5 3.5 0  11 3.5 0  11.5 3.5 0  12 3.5 0  12.5 3.5 0  13 3.5 0  13.5 3.5 0  14 3.5 0  14.5 3.5 0  15 3.5 0  15.5 3.5 0  16 3.5 0  16.5 3.5 0  17 3.5 0  17.5 3.5 0  18 3.5 0  18.5 3.5 0  19 3.5 0  19.5 3.5 0  20 3.5 0  0 4 0  0.5 4 0  1 4 0  1.5 4 0  2 4 0  2.5 4 0  3 4 0  3.5 4 0  4 4 0  4.5 4 0  5 4 0  5.5 4 0  6 4 0  6.5 4 0  7 4 0  7.5 4 0  8 4 0  8.5 4 0  9 4 0  9.5 4 0  10 4 0  10.5 4 0  11 4 0  11.5 4 0  12 4 0  12.5 4 0  13 4 0  13.5 4 0  14 4 0  14.5 4 0  15 4 0  15.5 4 0  16 4 0  16.5 4 0  17 4 0  17.5 4 0  18 4 0  18.5 4 0  19 4 0  19.5 4 0  20 4 0  0 4.5 0  0.5 4.5 0  1 4.5 0  1.5 4.5 0  2 4.5 0  2.5 4.5 0  3 4.5 0  3.5 4.5 0  4 4.5 0  4.5 4.5 0  5 4.5 0  5.5 4.5 0  6 4.5 0  6.5 4.5 0  7 4.5 0  7.5 4.5 0  8 4.5 0  8.5 4.5 0  9 4.5 0  9.5 4.5 0  10 4.5 0  10.5 4.5 0  11 4.5 0  11.5 4.5 0  12 4.5 0  12.5 4.5 0  13 4.5 0  13.5 4.5 0  14 4.5 0  14.5 4.5 0  15 4.5 0  15.5 4.5 0  16 4.5 0  16.5 4.5 0  17 4.5 0  17.5 4.5 0  18 4.5 0  18.5 4.5 0  19 4.5 0  19.5 4.5 0  20 4.5 0  0 5 0  0.5 5 0  1 5 0  1.5 5 0  2 5 0  2.5 5 0  3 5 0  3.5 5 0  4 5 0  4.5 5 0  5 5 0  5.5 5 0  6 5 0  6.5 5 0  7 5 0  7.5 5 0  8 5 0  8.5 5 0  9 5 0  9.5 5 0  10 5 0  10.5 5 0  11 5 0  11.5 5 0  12 5 0  12.5 5 0  13 5 0  13.5 5 0  14 5 0  14.5 5 0  15 5 0  15.5 5 0  16 5 0  16.5 5 0  17 5 0  17.5 5 0  18 5 0  18.5 5 0  19 5 0  19.5 5 0  20 5 0  0 5.5 0  0.5 5.5 0  1 5.5 0  1.5 5.5 0  2 5.5 0  2.5 5.5 0  3 5.5 0  3.5 5.5 0  4 5.5 0  4.5 5.5 0  5 5.5 0  5.5 5.5 0  6 5.5 0  6.5 5.5 0  7 5.5 0  7.5 5.5 0  8 5.5 0  8.5 5.5 0  9 5.5 0  9.5 5.5 0  10 5.5 0  10.5 5.5 0  11 5.5 0  11.5 5.5 0  12 5.5 0  12.5 5.5 0  13 5.5 0  13.5 5.5 0  14 5.5 0  14.5 5.5 0  15 5.5 0  15.5 5.5 0  16 5.5 0  16.5 5.5 0  17 5.5 0  17.5 5.5 0  18 5.5 0  18.5 5.5 0  19 5.5 0  19.5 5.5 0  20 5.5 0  0 6 0  0.5 6 0  1 6 0  1.5 6 0  2 6 0  2.5 6 0  3 6 0  3.5 6 0  4 6 0  4.5 6 0  5 6 0  5.5 6 0  6 6 0  6.5 6 0  7 6 0  7.5 6 0  8 6 0  8.5 6 0  9 6 0  9.5 6 0  10 6 0  10.5 6 0  11 6 0  11.5 6 0  12 6 0  12.5 6 0  13 6 0  13.5 6 0  14 6 0  14.5 6 0  15 6 0  15.5 6 0  16 6 0  16.5 6 0  17 6 0  17.5 6 0  18 6 0  18.5 6 0  19 6 0  19.5 6 0  20 6 0  0 6.5 0  0.5 6.5 0  1 6.5 0  1.5 6.5 0  2 6.5 0  2.5 6.5 0  3 6.5 0  3.5 6.5 0  4 6.5 0  4.5 6.5 0  5 6.5 0  5.5 6.5 0  6 6.5 0  6.5 6.5 0  7 6.5 0  7.5 6.5 0  8 6.5 0  8.5 6.5 0  9 6.5 0  9.5 6.5 0  10 6.5 0  10.5 6.5 0  11 6.5 0  11.5 6.5 0  12 6.5 0  12.5 6.5 0  13 6.5 0  13.5 6.5 0  14 6.5 0  14.5 6.5 0  15 6.5 0  15.5 6.5 0  16 6.5 0  16.5 6.5 0  17 6.5 0  17.5 6.5 0  18 6.5 0  18.5 6.5 0  19 6.5 0  19.5 6.5 0  20 6.5 0  0 7 0  0.5 7 0  1 7 0  1.5 7 0  2 7 0  2.5 7 0  3 7 0  3.5 7 0  4 7 0  4.5 7 0  5 7 0  5.5 7 0  6 7 0  6.5 7 0  7 7 0  7.5 7 0  8 7 0  8.5 7 0  9 7 0  9.5 7 0  10 7 0  10.5 7 0  11 7 0  11.5 7 0  12 7 0  12.5 7 0  13 7 0  13.5 7 0  14 7 0  14.5 7 0  15 7 0  15.5 7 0  16 7 0  16.5 7 0  17 7 0  17.5 7 0  18 7 0  18.5 7 0  19 7 0  19.5 7 0  20 7 0  0 7.5 0  0.5 7.5 0  1 7.5 0  1.5 7.5 0  2 7.5 0  2.5 7.5 0  3 7.5 0  3.5 7.5 0  4 7.5 0  4.5 7.5 0  5 7.5 0  5.5 7.5 0  6 7.5 0  6.5 7.5 0  7 7.5 0  7.5 7.5 0  8 7.5 0  8.5 7.5 0  9 7.5 0  9.5 7.5 0  10 7.5 0  10.5 7.5 0  11 7.5 0  11.5 7.5 0  12 7.5 0  12.5 7.5 0  13 7.5 0  13.5 7.5 0  14 7.5 0  14.5 7.5 0  15 7.5 0  15.5 7.5 0  16 7.5 0  16.5 7.5 0  17 7.5 0  17.5 7.5 0  18 7.5 0  18.5 7.5 0  19 7.5 0  19.5 7.5 0  20 7.5 0  0 8 0  0.5 8 0  1 8 0  1.5 8 0  2 8 0  2.5 8 0  3 8 0  3.5 8 0  4 8 0  4.5 8 0  5 8 0  5.5 8 0  6 8 0  6.5 8 0  7 8 0  7.5 8 0  8 8 0  8.5 8 0  9 8 0  9.5 8 0  10 8 0  10.5 8 0  11 8 0  11.5 8 0  12 8 0  12.5 8 0  13 8 0  13.5 8 0  14 8 0  14.5 8 0  15 8 0  15.5 8 0  16 8 0  16.5 8 0  17 8 0  17.5 8 0  18 8 0  18.5 8 0  19 8 0  19.5 8 0  20 8 0  0 8.5 0  0.5 8.5 0  1 8.5 0  1.5 8.5 0  2 8.5 0  2.5 8.5 0  3 8.5 0  3.5 8.5 0  4 8.5 0  4.5 8.5 0  5 8.5 0  5.5 8.5 0  6 8.5 0  6.5 8.5 0  7 8.5 0  7.5 8.5 0  8 8.5 0  8.5 8.5 0  9 8.5 0  9.5 8.5 0  10 8.5 0  10.5 8.5 0  11 8.5 0  11.5 8.5 0  12 8.5 0  12.5 8.5 0  13 8.5 0  13.5 8.5 0  14 8.5 0  14.5 8.5 0  15 8.5 0  15.5 8.5 0  16 8.5 0  16.5 8.5 0  17 8.5 0  17.5 8.5 0  18 8.5 0  18.5 8.5 0  19 8.5 0  19.5 8.5 0  20 8.5 0  0 9 0  0.5 9 0  1 9 0  1.5 9 0  2 9 0  2.5 9 0  3 9 0  3.5 9 0  4 9 0  4.5 9 0  5 9 0  5.5 9 0  6 9 0  6.5 9 0  7 9 0  7.5 9 0  8 9 0  8.5 9 0  9 9 0  9.5 9 0  10 9 0  10.5 9 0  11 9 0  11.5 9 0  12 9 0  12.5 9 0  13 9 0  13.5 9 0  14 9 0  14.5 9 0  15 9 0  15.5 9 0  16 9 0  16.5 9 0  17 9 0  17.5 9 0  18 9 0  18.5 9 0  19 9 0  19.5 9 0  20 9 0  0 9.5 0  0.5 9.5 0  1 9.5 0  1.5 9.5 0  2 9.5 0  2.5 9.5 0  3 9.5 0  3.5 9.5 0  4 9.5 0  4.5 9.5 0  5 9.5 0  5.5 9.5 0  6 9.5 0  6.5 9.5 0  7 9.5 0  7.5 9.5 0  8 9.5 0  8.5 9.5 0  9 9.5 0  9.5 9.5 0  10 9.5 0  10.5 9.5 0  11 9.5 0  11.5 9.5 0  12 9.5 0  12.5 9.5 0  13 9.5 0  13.5 9.5 0  14 9.5 0  14.5 9.5 0  15 9.5 0  15.5 9.5 0  16 9.5 0  16.5 9.5 0  17 9.5 0  17.5 9.5 0  18 9.5 0  18.5 9.5 0  19 9.5 0  19.5 9.5 0  20 9.5 0  0 10 0  0.5 10 0  1 10 0  1.5 10 0  2 10 0  2.5 10 0  3 10 0  3.5 10 0  4 10 0  4.5 10 0  5 10 0  5.5 10 0  6 10 0  6.5 10 0  7 10 0  7.5 10 0  8 10 0  8.5 10 0  9 10 0  9.5 10 0  10 10 0  10.5 10 0  11 10 0  11.5 10 0  12 10 0  12.5 10 0  13 10 0  13.5 10 0  14 10 0  14.5 10 0  15 10 0  15.5 10 0  16 10 0  16.5 10 0  17 10 0  17.5 10 0  18 10 0  18.5 10 0  19 10 0  19.5 10 0  20 10 0  0 10.5 0  0.5 10.5 0  1 10.5 0  1.5 10.5 0  2 10.5 0  2.5 10.5 0  3 10.5 0  3.5 10.5 0  4 10.5 0  4.5 10.5 0  5 10.5 0  5.5 10.5 0  6 10.5 0  6.5 10.5 0  7 10.5 0  7.5 10.5 0  8 10.5 0  8.5 10.5 0  9 10.5 0  9.5 10.5 0  10 10.5 0  10.5 10.5 0  11 10.5 0  11.5 10.5 0  12 10.5 0  12.5 10.5 0  13 10.5 0  13.5 10.5 0  14 10.5 0  14.5 10.5 0  15 10.5 0  15.5 10.5 0  16 10.5 0  16.5 10.5 0  17 10.5 0  17.5 10.5 0  18 10.5 0  18.5 10.5 0  19 10.5 0  19.5 10.5 0  20 10.5 0  0 11 0  0.5 11 0  1 11 0  1.5 11 0  2 11 0  2.5 11 0  3 11 0  3.5 11 0  4 11 0  4.5 11 0  5 11 0  5.5 11 0  6 11 0  6.5 11 0  7 11 0  7.5 11 0  8 11 0  8.5 11 0  9 11 0  9.5 11 0  10 11 0  10.5 11 0  11 11 0  11.5 11 0  12 11 0  12.5 11 0  13 11 0  13.5 11 0  14 11 0  14.5 11 0  15 11 0  15.5 11 0  16 11 0  16.5 11 0  17 11 0  17.5 11 0  18 11 0  18.5 11 0  19 11 0  19.5 11 0  20 11 0  0 11.5 0  0.5 11.5 0  1 11.5 0  1.5 11.5 0  2 11.5 0  2.5 11.5 0  3 11.5 0  3.5 11.5 0  4 11.5 0  4.5 11.5 0  5 11.5 0  5.5 11.5 0  6 11.5 0  6.5 11.5 0  7 11.5 0  7.5 11.5 0  8 11.5 0  8.5 11.5 0  9 11.5 0  9.5 11.5 0  10 11.5 0  10.5 11.5 0  11 11.5 0  11.5 11.5 0  12 11.5 0  12.5 11.5 0  13 11.5 0  13.5 11.5 0  14 11.5 0  14.5 11.5 0  15 11.5 0  15.5 11.5 0  16 11.5 0  16.5 11.5 0  17 11.5 0  17.5 11.5 0  18 11.5 0  18.5 11.5 0  19 11.5 0  19.5 11.5 0  20 11.5 0  0 12 0  0.5 12 0  1 12 0  1.5 12 0  2 12 0  2.5 12 0  3 12 0  3.5 12 0  4 12 0  4.5 12 0  5 12 0  5.5 12 0  6 12 0  6.5 12 0  7 12 0  7.5 12 0  8 12 0  8.5 12 0  9 12 0  9.5 12 0  10 12 0  10.5 12 0  11 12 0  11.5 12 0  12 12 0  12.5 12 0  13 12 0  13.5 12 0  14 12 0  14.5 12 0  
[...]
<PointData  Vectors="f_5623-0"> 
<DataArray  type="Float64"  Name="f_5623-0"  NumberOfComponents="3" format="ascii">0.0000000000000000e+00 0.0000000000000000e+00 0.0000000000000000e+00  1.0902312728010992e-08 0.0000000000000000e+00 0.0000000000000000e+00  7.0719196981722987e-08 0.0000000000000000e+00 0.0000000000000000e+00  2.3254325103757401e-07 0.0000000000000000e+00 0.0000000000000000e+00  5.4674771998657388e-07 0.0000000000000000e+00 0.0000000000000000e+00  1.0631025514095850e-06 0.0000000000000000e+00 0.0000000000000000e+00  1.8305202043856625e-06 0.0000000000000000e+00 0.0000000000000000e+00  2.8967633313569317e-06 0.0000000000000000e+00 0.0000000000000000e+00  4.3081720257542102e-06 0.0000000000000000e+00 0.0000000000000000e+00  6.1093821055584184e-06 0.0000000000000000e+00 0.0000000000000000e+00  8.3430240096837959e-06 0.0000000000000000e+00 0.0000000000000000e+00  1.1049399295708157e-05 0.0000000000000000e+00 0.0000000000000000e+00  1.4266133894839972e-05 0.0000000000000000e+00 0.0000000000000000e+00  1.8027808282950691e-05 0.0000000000000000e+00 0.0000000000000000e+00  2.2365565565412055e-05 0.0000000000000000e+00 0.0000000000000000e+00  2.7306699459021159e-05 0.0000000000000000e+00 0.0000000000000000e+00  3.2874225263855052e-05 0.0000000000000000e+00 0.0000000000000000e+00  3.9086438159484814e-05 0.0000000000000000e+00 0.0000000000000000e+00  4.5956464464201940e-05 0.0000000000000000e+00 0.0000000000000000e+00  5.3491812817631615e-05 0.0000000000000000e+00 0.0000000000000000e+00  6.1693933471728267e-05 0.0000000000000000e+00 0.0000000000000000e+00  7.0557794882063270e-05 0.0000000000000000e+00 0.0000000000000000e+00  8.0071487348095256e-05 0.0000000000000000e+00 0.0000000000000000e+00  9.0215863223760474e-05 0.0000000000000000e+00 0.0000000000000000e+00  1.0096422163760762e-04 0.0000000000000000e+00 0.0000000000000000e+00  1.1228204163587244e-04 0.0000000000000000e+00 0.0000000000000000e+00  1.2412675904796485e-04 0.0000000000000000e+00 0.0000000000000000e+00  1.3644756438864819e-04 0.0000000000000000e+00 0.0000000000000000e+00  1.4918515985232783e-04 0.0000000000000000e+00 0.0000000000000000e+00  1.6227132008790008e-04 0.0000000000000000e+00 0.0000000000000000e+00  1.7562785346355650e-04 0.0000000000000000e+00 0.0000000000000000e+00  1.8916382232984715e-04 0.0000000000000000e+00 0.0000000000000000e+00  2.0276745354039263e-04 0.0000000000000000e+00 0.0000000000000000e+00  2.1628056543397832e-04 0.0000000000000000e+00 0.0000000000000000e+00  2.2941122351847167e-04 0.0000000000000000e+00 0.0000000000000000e+00  2.4141674611418342e-04 0.0000000000000000e+00 0.0000000000000000e+00  2.4990746865464206e-04 0.0000000000000000e+00 0.0000000000000000e+00  2.4626159768839629e-04 0.0000000000000000e+00 0.0000000000000000e+00  1.9838084002633859e-04 0.0000000000000000e+00 0.0000000000000000e+00  -6.5090421240395731e-06 0.0000000000000000e+00 0.0000000000000000e+00  -7.0251290308721002e-04 0.0000000000000000e+00 0.0000000000000000e+00  0.0000000000000000e+00 1.0902311859628263e-08 0.0000000000000000e+00  -1.7888727896049197e-08 -1.7888727947155823e-08 0.0000000000000000e+00  1.6951657746276858e-08 -9.5248378937493116e-08 0.0000000000000000e+00  1.5345834298626562e-07 -2.2256770913380086e-07 0.0000000000000000e+00  4.4221310370625678e-07 -3.9994311390140593e-07 0.0000000000000000e+00  9.3310898506276556e-07 -6.2672501503132854e-07 0.0000000000000000e+00  1.6750983701666168e-06 -9.0189855985086202e-07 0.0000000000000000e+00  2.7159738798066444e-06 -1.2241763315042022e-06 0.0000000000000000e+00  4.1021131472216410e-06 -1.5920003892062140e-06 0.0000000000000000e+00  5.8782002825475931e-06 -2.0035236957890887e-06 0.0000000000000000e+00  8.0869257710066196e-06 -2.4565875032136276e-06 0.0000000000000000e+00  1.0768663773097230e-05 -2.9486979119394802e-06 0.0000000000000000e+00  1.3961126018884522e-05 -3.4770024158811788e-06 0.0000000000000000e+00  1.7698992307986332e-05 -4.0382670561396146e-06 0.0000000000000000e+00  2.2013518469338890e-05 -4.6288550294206866e-06 0.0000000000000000e+00  2.6932123696736738e-05 -5.2447077753569963e-06 0.0000000000000000e+00  3.2477960265179019e-05 -5.8813297474622279e-06 0.0000000000000000e+00  3.8669469901970577e-05 -6.5337781093166405e-06 0.0000000000000000e+00  4.5519932380087507e-05 -7.1966587398214869e-06 0.0000000000000000e+00  5.3037013255346460e-05 -7.8641298036874532e-06 0.0000000000000000e+00  6.1222318899385703e-05 -8.5299140396733320e-06 0.0000000000000000e+00  7.0070968019977353e-05 -9.1873205875296645e-06 0.0000000000000000e+00  7.9571189490130172e-05 -9.8292765551567458e-06 0.0000000000000000e+00  8.9703956182757082e-05 -1.0448367496243871e-05 0.0000000000000000e+00  1.0044266315250086e-04 -1.1036884188716492e-05 0.0000000000000000e+00  1.1175285503053628e-04 -1.1586869887521103e-05 0.0000000000000000e+00  1.2359200009556950e-04 -1.2090156429300504e-05 0.0000000000000000e+00  1.3590929352927619e-04 -1.2538366159225171e-05 0.0000000000000000e+00  1.4864544055799079e-04 -1.2922833440889112e-05 0.0000000000000000e+00  1.6173229560873624e-04 -1.3234349725791467e-05 0.0000000000000000e+00  1.7509203312871625e-04 -1.3462525859964959e-05 0.0000000000000000e+00  1.8863490536511239e-04 -1.3594319208893849e-05 0.0000000000000000e+00  2.0225249119061142e-04 -1.3610745079398829e-05 0.0000000000000000e+00  2.1579527830491282e-04 -1.3479805074622567e-05 0.0000000000000000e+00  2.2899179479827196e-04 -1.3142537856335732e-05 0.0000000000000000e+00  2.4113978601164238e-04 -1.2491151989812987e-05 0.0000000000000000e+00  2.4989308250836017e-04 -1.1357274415420529e-05 0.0000000000000000e+00  2.4650804939872805e-04 -9.5956377133617203e-06 0.0000000000000000e+00  1.9807417004861670e-04 -7.4374082212364486e-06 0.0000000000000000e+00  -9.7455978997898951e-06 -5.8859947388815532e-06 0.0000000000000000e+00  -7.0613111492601047e-04 -4.6441055556312319e-06 0.0000000000000000e+00  0.0000000000000000e+00 7.0719197265358984e-08 0.0000000000000000e+00  -9.5248379616305836e-08 1.6951658018903216e-08 0.0000000000000000e+00  -1.3713958257700553e-07 -1.3713958241955804e-07 0.0000000000000000e+00  -7.7177583709379308e-08 -3.9204070855188869e-07 0.0000000000000000e+00  1.3505449457744073e-07 -7.4707456927663247e-07 0.0000000000000000e+00  5.4945544758040863e-07 -1.2008376507800292e-06 0.0000000000000000e+00  1.2150366792922350e-06 -1.7513573512454535e-06 0.0000000000000000e+00  2.1796714111813457e-06 -2.3961156534874532e-06 0.0000000000000000e+00  3.4898427150109480e-06 -3.1320371981349161e-06 0.0000000000000000e+00  5.1903712482414783e-06 -3.9554596709630368e-06 0.0000000000000000e+00  7.3241196841905542e-06 -4.8620944187097419e-06 0.0000000000000000e+00  9.9316730796983156e-06 -5.8469820894638478e-06 0.0000000000000000e+00  1.3050994723538570e-05 -6.9044463555624121e-06 0.0000000000000000e+00  1.6717057459939621e-05 -8.0280479453797221e-06 0.0000000000000000e+00  2.0961451221675104e-05 -9.2105411246619705e-06 0.0000000000000000e+00  2.5811968443245716e-05 -1.0443834870038560e-05 0.0000000000000000e+00  3.1292170160264112e-05 -1.1718961177844931e-05 0.0000000000000000e+00  3.7420936820958723e-05 -1.3026053095755574e-05 0.0000000000000000e+00  4.4212009230062918e-05 -1.4354335215584335e-05 0.0000000000000000e+00  5.1673526377201427e-05 -1.5692129230628485e-05 0.0000000000000000e+00  5.9807568266060556e-05 -1.7026876911115498e-05 0.0000000000000000e+00  6.8609713022911960e-05 -1.8345182261072592e-05 0.0000000000000000e+00  7.8068618404141899e-05 -1.9632873462900730e-05 0.0000000000000000e+00  8.8165638105355454e-05 -2.0875083365054971e-05 0.0000000000000000e+00  9.8874482650422981e-05 -2.2056344063926432e-05 0.0000000000000000e+00  1.1016093260006629e-04 -2.3160685767850494e-05 0.0000000000000000e+00  1.2198260751262892e-04 -2.4171720697067105e-05 0.0000000000000000e+00  1.3428878566339270e-04 -2.5072675728819958e-05 0.0000000000000000e+00  1.4702025215893483e-04 -2.5846305516725562e-05 0.0000000000000000e+00  1.6010911018005957e-04 -2.6474556534056596e-05 0.0000000000000000e+00  1.7347835656392327e-04 -2.6937735686725298e-05 0.0000000000000000e+00  1.8704053112695467e-04 -2.7212726088985991e-05 0.0000000000000000e+00  2.0069277965824843e-04 -2.7269471767947478e-05 0.0000000000000000e+00  2.1429756212432513e-04 -2.7064710892873333e-05 0.0000000000000000e+00  2.2760483966024982e-04 -2.6532789569485734e-05 0.0000000000000000e+00  2.3993597883731490e-04 -2.5578625038218199e-05 0.0000000000000000e+00  2.4891449745803796e-04 -2.4093972100944515e-05 0.0000000000000000e+00  2.4552437607501353e-04 -2.2043235136493357e-05 0.0000000000000000e+00  1.9605993917409803e-04 -1.9627571249165864e-05 0.0000000000000000e+00  -1.4522881019066926e-05 -1.7203265195853726e-05 0.0000000000000000e+00  -7.1207629961236646e-04 -1.4084183260002354e-05 0.0000000000000000e+00  0.0000000000000000e+00 2.3254325231941346e-07 0.0000000000000000e+00  -2.2256770907877945e-07 1.5345834273786953e-07 0.0000000000000000e+00  -3.9204070853400338e-07 -7.7177584149596545e-08 0.0000000000000000e+00  -4.5943754468658905e-07 -4.5943754523594535e-07 0.0000000000000000e+00  -3.7451119385054969e-07 -9.9204576617961735e-07 0.0000000000000000e+00  -8.7350238575292457e-08 -1.6728390312049685e-06 0.0000000000000000e+00  4.5112486963951428e-07 -2.4988639620010188e-06 0.0000000000000000e+00  1.2889028587135391e-06 -3.4663818338313167e-06 0.0000000000000000e+00  2.4726325646130831e-06 -4.5708335749715074e-06 0.0000000000000000e+00  4.0473555793008884e-06 -5.8067870738105615e-06 0.0000000000000000e+00  6.0562160677750043e-06 -7.1678750082899008e-06 0.0000000000000000e+00  8.5401458095689506e-06 -8.6467270070868861e-06 0.0000000000000000e+00  1.1537523419030445e-05 -1.0234899039248857e-05 0.0000000000000000e+00  1.5083807321233747e-05 -1.1922802881783952e-05 0.0000000000000000e+00  1.9211142866066589e-05 -1.3699638767591586e-05 0.0000000000000000e+00  2.3947944887363014e-05 -1.5553334591151475e-05 0.0000000000000000e+00  2.9318458132067807e-05 -1.7470495382226007e-05 0.0000000000000000e+00  3.5342299252620237e-05 -1.9436367019370582e-05 0.0000000000000000e+00  4.2033985461820086e-05 -2.1434818307444025e-05 0.0000000000000000e+00  4.9402456386615585e-05 -2.3448345490787360e-05 0.0000000000000000e+00  5.7450597181633991e-05 -2.5458102903941440e-05 0.0000000000000000e+00  6.6174772309912739e-05 -2.7443962677426095e-05 0.0000000000000000e+00  7.5564380623296577e-05 -2.9384604920125901e-05 0.0000000000000000e+00  8.5601443200849904e-05 -3.1257637361936533e-05 0.0000000000000000e+00  9.6260235744517823e-05 -3.3039739450063138e-05 0.0000000000000000e+00  1.0750697702125255e-04 -3.4706819505587498e-05 0.0000000000000000e+00  1.1929958367754234e-04 -3.6234163086518098e-05 0.0000000000000000e+00  1.3158749938543878e-04 -3.7596533534315852e-05 0.0000000000000000e+00  1.4431160026417167e-04 -3.8768156987320569e-05 0.0000000000000000e+00  1.5740415569583506e-04 -3.9722477260614137e-05 0.0000000000000000e+00  1.7078872008937203e-04 -4.0431494323570961e-05 0.0000000000000000e+00  1.8437936011039640e-04 -4.0864411475961086e-05 0.0000000000000000e+00  1.9807655904389968e-04 -4.0985281404968983e-05 0.0000000000000000e+00  2.1174843793794691e-04 -4.0749622224007499e-05 0.0000000000000000e+00  2.2515035566548250e-04 -4.0101262184870705e-05 0.0000000000000000e+00  2.3759456811567019e-04 -3.8974148925148563e-05 0.0000000000000000e+00  2.4663746235382067e-04 -3.7309470563486714e-05 0.0000000000000000e+00  2.4305726022532799e-04 -3.5096824847791989e-05 0.0000000000000000e+00  1.9280104004805248e-04 -3.2405773871370684e-05 0.0000000000000000e+00  -1.9130103719235371e-05 -2.9275859285925258e-05 0.0000000000000000e+00  -7.1685614014363713e-04 -2.5529145769648321e-05 0.0000000000000000e+00  0.0000000000000000e+00 5.4674772008971623e-07 0.0000000000000000e+00  -3.9994311354595930e-07 4.4221310313678483e-07 0.0000000000000000e+00  -7.4707456845946665e-07 1.3505449420673017e-07 0.0000000000000000e+00  -9.9204576539998556e-07 -3.7451119394308513e-07 0.0000000000000000e+00  -1.0846762441824615e-06 -1.0846762447857232e-06 0.0000000000000000e+00  -9.7502945487562824e-07 -1.9925535729230867e-06 0.0000000000000000e+00  -6.1393548936134769e-07 -3.0942557354237564e-06 0.0000000000000000e+00  4.6744873225868789e-08 -4.3848751928922441e-06 0.0000000000000000e+00  1.0538795182914499e-06 -5.8584280470001867e-06 0.0000000000000000e+00  2.4528071338202396e-06 -7.5077797559862511e-06 0.0000000000000000e+00  4.2870552029140518e-06 -9.3245593868245259e-06 0.0000000000000000e+00  6.5980317718381996e-06 -1.1299066428019586e-05 0.0000000000000000e+00  9.4246896239335183e-06 -1.3420173642048572e-05 0.0000000000000000e+00  1.2803161982844055e-05 -1.5675229534727933e-05 0.0000000000000000e+00  1.6766369588688719e-05 -1.8049964409560095e-05 0.0000000000000000e+00  2.1343599908612829e-05 -2.0528404470407319e-05 0.0000000000000000e+00  2.6560060371018124e-05 -2.3092798899617205e-05 0.0000000000000000e+00  3.2436408823680495e-05 -2.5723565276981220e-05 0.0000000000000000e+00  3.8988265854915658e-05 -2.8399258959934073e-05 0.0000000000000000e+00  4.6225715243875986e-05 -3.1096572072769922e-05 0.0000000000000000e+00  5.4152800467399015e-05 -3.3790367369133283e-05 0.0000000000000000e+00  6.2767026875088151e-05 -3.6453751370380666e-05 0.0000000000000000e+00  7.2058880797303197e-05 -3.9058189516534936e-05 0.0000000000000000e+00  8.2011378336642978e-05 -4.1573663316532442e-05 0.0000000000000000e+00  9.2599657942733985e-05 -4.3968865256744627e-05 0.0000000000000000e+00  1.0379063208990755e-04 -4.6211420689558217e-05 0.0000000000000000e+00  1.1554271469469619e-04 -4.8268116185729467e-05 0.0000000000000000e+00  1.2780564230820688e-04 -5.0105099478028227e-05 0.0000000000000000e+00  1.4052040639480265e-04 -5.1687995527470005e-05 0.0000000000000000e+00  1.5361929624302948e-04 -5.2981856340473500e-05 0.0000000000000000e+00  1.6702594445537259e-04 -5.3950834556713887e-05 0.0000000000000000e+00  1.8065475112810314e-04 -5.4557466770402494e-05 0.0000000000000000e+00  1.9440682502395705e-04 -5.4761541469288243e-05 0.0000000000000000e+00  2.0815037017040411e-04 -5.4518862412069847e-05 0.0000000000000000e+00  2.2163673428715828e-04 -5.3781035393121335e-05 0.0000000000000000e+00  2.3416038587669488e-04 -5.2498741126986541e-05 0.0000000000000000e+00  2.4322811611627524e-04 -5.0631552582072300e-05 0.0000000000000000e+00  2.3952417038716514e-04 -4.8162577739486945e-05 0.0000000000000000e+00  1.8891529951926134e-04 -4.5100666903800486e-05 0.0000000000000000e+00  -2.3426350581631761e-05 -4.1460659732942965e-05 0.0000000000000000e+00  -7.2103154294292414e-04 -3.7450762115942358e-05 0.0000000000000000e+00  0.0000000000000000e+00 1.0631025508654150e-06 0.0000000000000000e+00  -6.2672501466684561e-07 9.3310898462831219e-07 0.0000000000000000e+00  -1.2008376502233251e-06 5.4945544758197553e-07 0.0000000000000000e+00  -1.6728390306956034e-06 -8.7350238726145558e-08 0.0000000000000000e+00  -1.9925535724243092e-06 -9.7502945503200704e-07 0.0000000000000000e+00  -2.1100214490564254e-06 -2.1100214494396485e-06 0.0000000000000000e+00  -1.9759741250987342e-06 -3.4875631489674446e-06 0.0000000000000000e+00  -1.5420966562909117e-06 -5.1016493667588426e-06 0.0000000000000000e+00  -7.6125763794200893e-07 -6.9449546601193570e-06 0.0000000000000000e+00  4.1224544608862109e-07 -9.0087358460102123e-06 0.0000000000000000e+00  2.0224156789026710e-06 -1.1282721207854777e-05 0.0000000000000000e+00  4.1112580591890928e-06 -1.3754990226614123e-05 0.0000000000000000e+00  6.7184509185702024e-06 -1.6411847630489828e-05 0.0000000000000000e+00  9.8809860236681800e-06 -1.9237696005029217e-05 0.0000000000000000e+00  1.3632776588832940e-05 -2.2214911794269760e-05 0.0000000000000000e+00  1.8004233295379243e-05 -2.5323730217475843e-05 0.0000000000000000e+00  2.3021809498882367e-05 -2.8542145291142797e-05 0.0000000000000000e+00  2.8707518168511748e-05 -3.1845831731194657e-05 0.0000000000000000e+00  3.5078424623249138e-05 -3.5208095981351318e-05 0.0000000000000000e+00  4.2146120914401971e-05 -3.8599863755039696e-05 0.0000000000000000e+00  4.9916189610634025e-05 -4.1989711195216509e-05 0.0000000000000000e+00  5.8387666804642306e-05 -4.5343945946039655e-05 0.0000000000000000e+00  6.7552516324752613e-05 -4.8626742758496064e-05 0.0000000000000000e+00  7.7395129349035443e-05 -5.1800335472197356e-05 0.0000000000000000e+00  8.7891865955537843e-05 -5.4825263079144587e-05 0.0000000000000000e+00  9.9010657681136848e-05 -5.7660661464800861e-05 0.0000000000000000e+00  1.1071069315712316e-04 -6.0264584092087913e-05 0.0000000000000000e+00  1.2294221213857110e-04 -6.2594323967901948e-05 0.0000000000000000e+00  1.3564643351922695e-04 -6.4606696279360853e-05 0.0000000000000000e+00  1.4875562215677267e-04 -6.6258229102045604e-05 0.0000000000000000e+00  1.6219317583318041e-04 -6.7505207290172208e-05 0.0000000000000000e+00  1.7587304881285998e-04 -6.8303543021459192e-05 0.0000000000000000e+00  1.8969547087519491e-04 -6.8608546107763602e-05 0.0000000000000000e+00  2.0352648146764916e-04 -6.8374896845997132e-05 0.0000000000000000e+00  2.1711181666630818e-04 -6.7557514090109245e-05 0.0000000000000000e+00  2.2973296350860676e-04 -6.6114406444722304e-05 0.0000000000000000e+00  2.3887263874051214e-04 -6.4012369393109399e-05 0.0000000000000000e+00  2.3518570403153227e-04 -6.1234540034064793e-05 0.0000000000000000e+00  1.8453845573302650e-04 -5.7787406092253426e-05 0.0000000000000000e+00  -2.7808874060758940e-05 -5.3729548486832497e-05 0.0000000000000000e+00  -7.2529142000346308e-04 -4.9400847540602866e-05 0.0000000000000000e+00  0.0000000000000000e+00 1.8305202035497708e-06 0.0000000000000000e+00  -9.0189855980442439e-07 1.6750983698385971e-06 0.0000000000000000e+00  -1.7513573513585120e-06 1.2150366790410074e-06 0.0000000000000000e+00  -2.4988639619673056e-06 4.5112486912236657e-07 0.0000000000000000e+00  -3.0942557354216435e-06 -6.1393548953501147e-07 0.0000000000000000e+00  -3.4875631487038357e-06 -1.9759741257934440e-06 0.0000000000000000e+00  -3.6294270183555958e-06 -3.6294270183372821e-06 0.0000000000000000e+00  -3.4713474954992342e-06 -5.5672806497740725e-06 0.0000000000000000e+00  -2.9659000459018198e-06 -7.7809724953325100e-06 0.0000000000000000e+00  -2.0669654452538594e-06 -1.0260269230387796e-05 0.0000000000000000e+00  -7.2998574152579268e-07 -1.2993129079340519e-05 0.0000000000000000e+00  1.0877497717018246e-06 -1.5965552211261242e-05 0.0000000000000000e+00  3.4267860244714510e-06 -1.9161423220396081e-05 0.0000000000000000e+00  6.3251490159894940e-06 -2.2562350462909597e-05 0.0000000000000000e+00  9.8179565057116677e-06 -2.6147507858552350e-05 0.0000000000000000e+00  1.3936991804208338e-05 -2.9893485703937071e-05 0.0000000000000000e+00  1.8710241005645730e-05 -3.3774157928082699e-05 0.0000000000000000e+00  2.4161395337468269e-05 -3.7760574066599525e-05 0.0000000000000000e+00  3.0309321979153328e-05 -4.1820884933379778e-05 0.0000000000000000e+00  3.7167508614231459e-05 -4.5920311330670744e-05 0.0000000000000000e+00  4.4743489191312690e-05 -5.0021165081065308e-05 0.0000000000000000e+00  5.3038260884153069e-05 -5.4082931050869988e-05 0.0000000000000000e+00  6.2045704968179596e-05 -5.8062417301743095e-05 0.0000000000000000e+00  7.1752027344753645e-05 -6.1913977973614975e-05 0.0000000000000000e+00  8.2135237767529622e-05 -6.5589809652644244e-05 0.0000000000000000e+00  9.3164690545754995e-05 -6.9040316575950475e-05 0.0000000000000000e+00  1.0480071372444292e-04 -7.2214533146584887e-05 0.0000000000000000e+00  1.1699435782837401e-04 -7.5060584209106469e-05 0.0000000000000000e+00  1.2968729489528188e-04 -7.7526155916435866e-05 0.0000000000000000e+00  1.4281187311321008e-04 -7.9558946438535805e-05 0.0000000000000000e+00  1.5629119530819212e-04 -8.1107073924302736e-05 0.0000000000000000e+00  1.7003849462642019e-04 -8.2119452814086212e-05 0.0000000000000000e+00  1.8395267144569161e-04 -8.2546228837051798e-05 0.0000000000000000e+00  1.9789736102346028e-04 -8.2339507271191929e-05 0.0000000000000000e+00  2.1161395719320