<?xml version="1.0"?>
<VTKFile type="UnstructuredGrid"  version="0.1"  >
<UnstructuredGrid>
<Piece  NumberOfPoints="1681" NumberOfCells="3200">
<Points>
<DataArray  type="Float64"  NumberOfComponents="3"  format="ascii">0 0 0  0.5 0 0  1 0 0  1.5 0 0  2 0 0  2.5 0 0  3 0 0  3.5 0 0  4 0 0  4.5 0 0  5 0 0  5.5 0 0  6 0 0  6.5 0 0  7 0 0  7.5 0 0  8 0 0  8.5 0 0  9 0 0  9.5 0 0  10 0 0  10.5 0 0  11 0 0  11.5 0 0  12 0 0  12.5 0 0  13 0 0  13.5 0 0  14 0 0  14.5 0 0  15 0 0  15.5 0 0  16 0 0  16.5 0 0  17 0 0  17.5 0 0  18 0 0  18.5 0 0  19 0 0  19.5 0 0  20 0 0  0 0.5 0  0.5 0.5 0  1 0.5 0  1.5 0.5 0  2 0.5 0  2.5 0.5 0  3 0.5 0  3.5 0.5 0  4 0.5 0  4.5 0.5 0  5 0.5 0  5.5 0.5 0  6 0.5 0  6.5 0.5 0  7 0.5 0  7.5 0.5 0  8 0.5 0  8.5 0.5 0  9 0.5 0  9.5 0.5 0  10 0.5 0  10.5 0.5 0  11 0.5 0  11.5 0.5 0  12 0.5 0  12.5 0.5 0  13 0.5 0  13.5 0.5 0  14 0.5 0  14.5 0.5 0  15 0.5 0  15.5 0.5 0  16 0.5 0  16.5 0.5 0  17 0.5 0  17.5 0.5 0  18 0.5 0  18.5 0.5 0  19 0.5 0  19.5 0.5 0  20 0.5 0  0 1 0  0.5 1 0  1 1 0  1.5 1 0  2 1 0  2.5 1 0  3 1 0  3.5 1 0  4 1 0  4.5 1 0  5 1 0  5.5 1 0  6 1 0  6.5 1 0  7 1 0  7.5 1 0  8 1 0  8.5 1 0  9 1 0  9.5 1 0  10 1 0  10.5 1 0  11 1 0  11.5 1 0  12 1 0  12.5 1 0  13 1 0  13.5 1 0  14 1 0  14.5 1 0  15 1 0  15.5 1 0  16 1 0  16.5 1 0  17 1 0  17.5 1 0  18 1 0  18.5 1 0  19 1 0  19.5 1 0  20 1 0  0 1.5 0  0.5 1.5 0  1 1.5 0  1.5 1.5 0  2 1.5 0  2.5 1.5 0  3 1.5 0  3.5 1.5 0  4 1.5 0  4.5 1.5 0  5 1.5 0  5.5 1.5 0  6 1.5 0  6.5 1.5 0  7 1.5 0  7.5 1.5 0  8 1.5 0  8.5 1.5 0  9 1.5 0  9.5 1.5 0  10 1.5 0  10.5 1.5 0  11 1.5 0  11.5 1.5 0  12 1.5 0  12.5 1.5 0  13 1.5 0  13.5 1.5 0  14 1.5 0  14.5 1.5 0  15 1.5 0  15.5 1.5 0  16 1.5 0  16.5 1.5 0  17 1.5 0  17.5 1.5 0  18 1.5 0  18.5 1.5 0  19 1.5 0  19.5 1.5 0  20 1.5 0  0 2 0  0.5 2 0  1 2 0  1.5 2 0  2 2 0  2.5 2 0  3 2 0  3.5 2 0  4 2 0  4.5 2 0  5 2 0  5.5 2 0  6 2 0  6.5 2 0  7 2 0  7.5 2 0  8 2 0  8.5 2 0  9 2 0  9.5 2 0  10 2 0  10.5 2 0  11 2 0  11.5 2 0  12 2 0  12.5 2 0  13 2 0  13.5 2 0  14 2 0  14.5 2 0  15 2 0  15.5 2 0  16 2 0  16.5 2 0  17 2 0  17.5 2 0  18 2 0  18.5 2 0  19 2 0  19.5 2 0  20 2 0  0 2.5 0  0.5 2.5 0  1 2.5 0  1.5 2.5 0  2 2.5 0  2.5 2.5 0  3 2.5 0  3.5 2.5 0  4 2.5 0  4.5 2.5 0  5 2.5 0  5.5 2.5 0  6 2.5 0  6.5 2.5 0  7 2.5 0  7.5 2.5 0  8 2.5 0  8.5 2.5 0  9 2.5 0  9.5 2.5 0  10 2.5 0  10.5 2.5 0  11 2.5 0  11.5 2.5 0  12 2.5 0  12.5 2.5 0  13 2.5 0  13.5 2.5 0  14 2.5 0  14.5 2.5 0  15 2.5 0  15.5 2.5 0  16 2.5 0  16.5 2.5 0  17 2.5 0  17.5 2.5 0  18 2.5 0  18.5 2.5 0  19 2.5 0  19.5 2.5 0  20 2.5 0  0 3 0  0.5 3 0  1 3 0  1.5 3 0  2 3 0  2.5 3 0  3 3 0  3.5 3 0  4 3 0  4.5 3 0  5 3 0  5.5 3 0  6 3 0  6.5 3 0  7 3 0  7.5 3 0  8 3 0  8.5 3 0  9 3 0  9.5 3 0  10 3 0  10.5 3 0  11 3 0  11.5 3 0  12 3 0  12.5 3 0  13 3 0  13.5 3 0  14 3 0  14.5 3 0  15 3 0  15.5 3 0  16 3 0  16.5 3 0  17 3 0  17.5 3 0  18 3 0  18.5 3 0  19 3 0  19.5 3 0  20 3 0  0 3.5 0  0.5 3.5 0  1 3.5 0  1.5 3.5 0  2 3.5 0  2.5 3.5 0  3 3.5 0  3.5 3.5 0  4 3.5 0  4.5 3.5 0  5 3.5 0  5.5 3.5 0  6 3.5 0  6.5 3.5 0  7 3.5 0  7.5 3.5 0  8 3.5 0  8.5 3.5 0  9 3.5 0  9.5 3.5 0  10 3.5 0  10.5 3.5 0  11 3.5 0  11.5 3.5 0  12 3.5 0  12.5 3.5 0  13 3.5 0  13.5 3.5 0  14 3.5 0  14.5 3.5 0  15 3.5 0  15.5 3.5 0  16 3.5 0  16.5 3.5 0  17 3.5 0  17.5 3.5 0  18 3.5 0  18.5 3.5 0  19 3.5 0  19.5 3.5 0  20 3.5 0  0 4 0  0.5 4 0  1 4 0  1.5 4 0  2 4 0  2.5 4 0  3 4 0  3.5 4 0  4 4 0  4.5 4 0  5 4 0  5.5 4 0  6 4 0  6.5 4 0  7 4 0  7.5 4 0  8 4 0  8.5 4 0  9 4 0  9.5 4 0  10 4 0  10.5 4 0  11 4 0  11.5 4 0  12 4 0  12.5 4 0  13 4 0  13.5 4 0  14 4 0  14.5 4 0  15 4 0  15.5 4 0  16 4 0  16.5 4 0  17 4 0  17.5 4 0  18 4 0  18.5 4 0  19 4 0  19.5 4 0  20 4 0  0 4.5 0  0.5 4.5 0  1 4.5 0  1.5 4.5 0  2 4.5 0  2.5 4.5 0  3 4.5 0  3.5 4.5 0  4 4.5 0  4.5 4.5 0  5 4.5 0  5.5 4.5 0  6 4.5 0  6.5 4.5 0  7 4.5 0  7.5 4.5 0  8 4.5 0  8.5 4.5 0  9 4.5 0  9.5 4.5 0  10 4.5 0  10.5 4.5 0  11 4.5 0  11.5 4.5 0  12 4.5 0  12.5 4.5 0  13 4.5 0  13.5 4.5 0  14 4.5 0  14.5 4.5 0  15 4.5 0  15.5 4.5 0  16 4.5 0  16.5 4.5 0  17 4.5 0  17.5 4.5 0  18 4.5 0  18.5 4.5 0  19 4.5 0  19.5 4.5 0  20 4.5 0  0 5 0  0.5 5 0  1 5 0  1.5 5 0  2 5 0  2.5 5 0  3 5 0  3.5 5 0  4 5 0  4.5 5 0  5 5 0  5.5 5 0  6 5 0  6.5 5 0  7 5 0  7.5 5 0  8 5 0  8.5 5 0  9 5 0  9.5 5 0  10 5 0  10.5 5 0  11 5 0  11.5 5 0  12 5 0  12.5 5 0  13 5 0  13.5 5 0  14 5 0  14.5 5 0  15 5 0  15.5 5 0  16 5 0  16.5 5 0  17 5 0  17.5 5 0  18 5 0  18.5 5 0  19 5 0  19.5 5 0  20 5 0  0 5.5 0  0.5 5.5 0  1 5.5 0  1.5 5.5 0  2 5.5 0  2.5 5.5 0  3 5.5 0  3.5 5.5 0  4 5.5 0  4.5 5.5 0  5 5.5 0  5.5 5.5 0  6 5.5 0  6.5 5.5 0  7 5.5 0  7.5 5.5 0  8 5.5 0  8.5 5.5 0  9 5.5 0  9.5 5.5 0  10 5.5 0  10.5 5.5 0  11 5.5 0  11.5 5.5 0  12 5.5 0  12.5 5.5 0  13 5.5 0  13.5 5.5 0  14 5.5 0  14.5 5.5 0  15 5.5 0  15.5 5.5 0  16 5.5 0  16.5 5.5 0  17 5.5 0  17.5 5.5 0  18 5.5 0  18.5 5.5 0  19 5.5 0  19.5 5.5 0  20 5.5 0  0 6 0  0.5 6 0  1 6 0  1.5 6 0  2 6 0  2.5 6 0  3 6 0  3.5 6 0  4 6 0  4.5 6 0  5 6 0  5.5 6 0  6 6 0  6.5 6 0  7 6 0  7.5 6 0  8 6 0  8.5 6 0  9 6 0  9.5 6 0  10 6 0  10.5 6 0  11 6 0  11.5 6 0  12 6 0  12.5 6 0  13 6 0  13.5 6 0  14 6 0  14.5 6 0  15 6 0  15.5 6 0  16 6 0  16.5 6 0  17 6 0  17.5 6 0  18 6 0  18.5 6 0  19 6 0  19.5 6 0  20 6 0  0 6.5 0  0.5 6.5 0  1 6.5 0  1.5 6.5 0  2 6.5 0  2.5 6.5 0  3 6.5 0  3.5 6.5 0  4 6.5 0  4.5 6.5 0  5 6.5 0  5.5 6.5 0  6 6.5 0  6.5 6.5 0  7 6.5 0  7.5 6.5 0  8 6.5 0  8.5 6.5 0  9 6.5 0  9.5 6.5 0  10 6.5 0  10.5 6.5 0  11 6.5 0  11.5 6.5 0  12 6.5 0  12.5 6.5 0  13 6.5 0  13.5 6.5 0  14 6.5 0  14.5 6.5 0  15 6.5 0  15.5 6.5 0  16 6.5 0  16.5 6.5 0  17 6.5 0  17.5 6.5 0  18 6.5 0  18.5 6.5 0  19 6.5 0  19.5 6.5 0  20 6.5 0  0 7 0  0.5 7 0  1 7 0  1.5 7 0  2 7 0  2.5 7 0  3 7 0  3.5 7 0  4 7 0  4.5 7 0  5 7 0  5.5 7 0  6 7 0  6.5 7 0  7 7 0  7.5 7 0  8 7 0  8.5 7 0  9 7 0  9.5 7 0  10 7 0  10.5 7 0  11 7 0  11.5 7 0  12 7 0  12.5 7 0  13 7 0  13.5 7 0  14 7 0  14.5 7 0  15 7 0  15.5 7 0  16 7 0  16.5 7 0  17 7 0  17.5 7 0  18 7 0  18.5 7 0  19 7 0  19.5 7 0  20 7 0  0 7.5 0  0.5 7.5 0  1 7.5 0  1.5 7.5 0  2 7.5 0  2.5 7.5 0  3 7.5 0  3.5 7.5 0  4 7.5 0  4.5 7.5 0  5 7.5 0  5.5 7.5 0  6 7.5 0  6.5 7.5 0  7 7.5 0  7.5 7.5 0  8 7.5 0  8.5 7.5 0  9 7.5 0  9.5 7.5 0  10 7.5 0  10.5 7.5 0  11 7.5 0  11.5 7.5 0  12 7.5 0  12.5 7.5 0  13 7.5 0  13.5 7.5 0  14 7.5 0  14.5 7.5 0  15 7.5 0  15.5 7.5 0  16 7.5 0  16.5 7.5 0  17 7.5 0  17.5 7.5 0  18 7.5 0  18.5 7.5 0  19 7.5 0  19.5 7.5 0  20 7.5 0  0 8 0  0.5 8 0  1 8 0  1.5 8 0  2 8 0  2.5 8 0  3 8 0  3.5 8 0  4 8 0  4.5 8 0  5 8 0  5.5 8 0  6 8 0  6.5 8 0  7 8 0  7.5 8 0  8 8 0  8.5 8 0  9 8 0  9.5 8 0  10 8 0  10.5 8 0  11 8 0  11.5 8 0  12 8 0  12.5 8 0  13 8 0  13.5 8 0  14 8 0  14.5 8 0  15 8 0  15.5 8 0  16 8 0  16.5 8 0  17 8 0  17.5 8 0  18 8 0  18.5 8 0  19 8 0  19.5 8 0  20 8 0  0 8.5 0  0.5 8.5 0  1 8.5 0  1.5 8.5 0  2 8.5 0  2.5 8.5 0  3 8.5 0  3.5 8.5 0  4 8.5 0  4.5 8.5 0  5 8.5 0  5.5 8.5 0  6 8.5 0  6.5 8.5 0  7 8.5 0  7.5 8.5 0  8 8.5 0  8.5 8.5 0  9 8.5 0  9.5 8.5 0  10 8.5 0  10.5 8.5 0  11 8.5 0  11.5 8.5 0  12 8.5 0  12.5 8.5 0  13 8.5 0  13.5 8.5 0  14 8.5 0  14.5 8.5 0  15 8.5 0  15.5 8.5 0  16 8.5 0  16.5 8.5 0  17 8.5 0  17.5 8.5 0  18 8.5 0  18.5 8.5 0  19 8.5 0  19.5 8.5 0  20 8.5 0  0 9 0  0.5 9 0  1 9 0  1.5 9 0  2 9 0  2.5 9 0  3 9 0  3.5 9 0  4 9 0  4.5 9 0  5 9 0  5.5 9 0  6 9 0  6.5 9 0  7 9 0  7.5 9 0  8 9 0  8.5 9 0  9 9 0  9.5 9 0  10 9 0  10.5 9 0  11 9 0  11.5 9 0  12 9 0  12.5 9 0  13 9 0  13.5 9 0  14 9 0  14.5 9 0  15 9 0  15.5 9 0  16 9 0  16.5 9 0  17 9 0  17.5 9 0  18 9 0  18.5 9 0  19 9 0  19.5 9 0  20 9 0  0 9.5 0  0.5 9.5 0  1 9.5 0  1.5 9.5 0  2 9.5 0  2.5 9.5 0  3 9.5 0  3.5 9.5 0  4 9.5 0  4.5 9.5 0  5 9.5 0  5.5 9.5 0  6 9.5 0  6.5 9.5 0  7 9.5 0  7.5 9.5 0  8 9.5 0  8.5 9.5 0  9 9.5 0  9.5 9.5 0  10 9.5 0  10.5 9.5 0  11 9.5 0  11.5 9.5 0  12 9.5 0  12.5 9.5 0  13 9.5 0  13.5 9.5 0  14 9.5 0  14.5 9.5 0  15 9.5 0  15.5 9.5 0  16 9.5 0  16.5 9.5 0  17 9.5 0  17.5 9.5 0  18 9.5 0  18.5 9.5 0  19 9.5 0  19.5 9.5 0  20 9.5 0  0 10 0  0.5 10 0  1 10 0  1.5 10 0  2 10 0  2.5 10 0  3 10 0  3.5 10 0  4 10 0  4.5 10 0  5 10 0  5.5 10 0  6 10 0  6.5 10 0  7 10 0  7.5 10 0  8 10 0  8.5 10 0  9 10 0  9.5 10 0  10 10 0  10.5 10 0  11 10 0  11.5 10 0  12 10 0  12.5 10 0  13 10 0  13.5 10 0  14 10 0  14.5 10 0  15 10 0  15.5 10 0  16 10 0  16.5 10 0  17 10 0  17.5 10 0  18 10 0  18.5 10 0  19 10 0  19.5 10 0  20 10 0  0 10.5 0  0.5 10.5 0  1 10.5 0  1.5 10.5 0  2 10.5 0  2.5 10.5 0  3 10.5 0  3.5 10.5 0  4 10.5 0  4.5 10.5 0  5 10.5 0  5.5 10.5 0  6 10.5 0  6.5 10.5 0  7 10.5 0  7.5 10.5 0  8 10.5 0  8.5 10.5 0  9 10.5 0  9.5 10.5 0  10 10.5 0  10.5 10.5 0  11 10.5 0  11.5 10.5 0  12 10.5 0  12.5 10.5 0  13 10.5 0  13.5 10.5 0  14 10.5 0  14.5 10.5 0  15 10.5 0  15.5 10.5 0  16 10.5 0  16.5 10.5 0  17 10.5 0  17.5 10.5 0  18 10.5 0  18.5 10.5 0  19 10.5 0  19.5 10.5 0  20 10.5 0  0 11 0  0.5 11 0  1 11 0  1.5 11 0  2 11 0  2.5 11 0  3 11 0  3.5 11 0  4 11 0  4.5 11 0  5 11 0  5.5 11 0  6 11 0  6.5 11 0  7 11 0  7.5 11 0  8 11 0  8.5 11 0  9 11 0  9.5 11 0  10 11 0  10.5 11 0  11 11 0  11.5 11 0  12 11 0  12.5 11 0  13 11 0  13.5 11 0  14 11 0  14.5 11 0  15 11 0  15.5 11 0  16 11 0  16.5 11 0  17 11 0  17.5 11 0  18 11 0  18.5 11 0  19 11 0  19.5 11 0  20 11 0  0 11.5 0  0.5 11.5 0  1 11.5 0  1.5 11.5 0  2 11.5 0  2.5 11.5 0  3 11.5 0  3.5 11.5 0  4 11.5 0  4.5 11.5 0  5 11.5 0  5.5 11.5 0  6 11.5 0  6.5 11.5 0  7 11.5 0  7.5 11.5 0  8 11.5 0  8.5 11.5 0  9 11.5 0  9.5 11.5 0  10 11.5 0  10.5 11.5 0  11 11.5 0  11.5 11.5 0  12 11.5 0  12.5 11.5 0  13 11.5 0  13.5 11.5 0  14 11.5 0  14.5 11.5 0  15 11.5 0  15.5 11.5 0  16 11.5 0  16.5 11.5 0  17 11.5 0  17.5 11.5 0  18 11.5 0  18.5 11.5 0  19 11.5 0  19.5 11.5 0  20 11.5 0  0 12 0  0.5 12 0  1 12 0  1.5 12 0  2 12 0  2.5 12 0  3 12 0  3.5 12 0  4 12 0  4.5 12 0  5 12 0  5.5 12 0  6 12 0  6.5 12 0  7 12 0  7.5 12 0  8 12 0  8.5 12 0  9 12 0  9.5 12 0  10 12 0  10.5 12 0  11 12 0  11.5 12 0  12 12 0  12.5 12 0  13 12 0  13.5 12 0  14 12 0  14.5 12 0  
[...]
<PointData  Vectors="f_5623-0"> 
<DataArray  type="Float64"  Name="f_5623-0"  NumberOfComponents="3" format="ascii">0.0000000000000000e+00 0.0000000000000000e+00 0.0000000000000000e+00  5.4608505821063206e-07 0.0000000000000000e+00 0.0000000000000000e+00  2.7874380303428742e-06 0.0000000000000000e+00 0.0000000000000000e+00  8.8867005276444827e-06 0.0000000000000000e+00 0.0000000000000000e+00  2.0752149129165418e-05 0.0000000000000000e+00 0.0000000000000000e+00  4.0257750482986524e-05 0.0000000000000000e+00 0.0000000000000000e+00  6.9246754972503467e-05 0.0000000000000000e+00 0.0000000000000000e+00  1.0952114511632432e-04 0.0000000000000000e+00 0.0000000000000000e+00  1.6283067631893915e-04 0.0000000000000000e+00 0.0000000000000000e+00  2.3086164186024525e-04 0.0000000000000000e+00 0.0000000000000000e+00  3.1522497967929143e-04 0.0000000000000000e+00 0.0000000000000000e+00  4.1744347805367681e-04 0.0000000000000000e+00 0.0000000000000000e+00  5.3893788534605002e-04 0.0000000000000000e+00 0.0000000000000000e+00  6.8101170255612333e-04 0.0000000000000000e+00 0.0000000000000000e+00  8.4483434276833393e-04 0.0000000000000000e+00 0.0000000000000000e+00  1.0314221505084385e-03 0.0000000000000000e+00 0.0000000000000000e+00  1.2416164264302896e-03 0.0000000000000000e+00 0.0000000000000000e+00  1.4760569980912415e-03 0.0000000000000000e+00 0.0000000000000000e+00  1.7351488565956160e-03 0.0000000000000000e+00 0.0000000000000000e+00  2.0190176936980232e-03 0.0000000000000000e+00 0.0000000000000000e+00  2.3274474513298371e-03 0.0000000000000000e+00 0.0000000000000000e+00  2.6597886847440702e-03 0.0000000000000000e+00 0.0000000000000000e+00  3.0148198609976870e-03 0.0000000000000000e+00 0.0000000000000000e+00  3.3905336016895838e-03 0.0000000000000000e+00 0.0000000000000000e+00  3.7838049651146288e-03 0.0000000000000000e+00 0.0000000000000000e+00  4.1898775318809037e-03 0.0000000000000000e+00 0.0000000000000000e+00  4.6015736574618249e-03 0.0000000000000000e+00 0.0000000000000000e+00  5.0080965882838262e-03 0.0000000000000000e+00 0.0000000000000000e+00  5.3932444008164149e-03 0.0000000000000000e+00 0.0000000000000000e+00  5.7328020820916811e-03 0.0000000000000000e+00 0.0000000000000000e+00  5.9908270295893420e-03 0.0000000000000000e+00 0.0000000000000000e+00  6.1145117610984269e-03 0.0000000000000000e+00 0.0000000000000000e+00  6.0273243564363133e-03 0.0000000000000000e+00 0.0000000000000000e+00  5.6202342502318092e-03 0.0000000000000000e+00 0.0000000000000000e+00  4.7410809157149604e-03 0.0000000000000000e+00 0.0000000000000000e+00  3.1825848256533435e-03 0.0000000000000000e+00 0.0000000000000000e+00  6.7014922899395865e-04 0.0000000000000000e+00 0.0000000000000000e+00  -3.1486081029239109e-03 0.0000000000000000e+00 0.0000000000000000e+00  -8.7099105339630955e-03 0.0000000000000000e+00 0.0000000000000000e+00  -1.6532326588615930e-02 0.0000000000000000e+00 0.0000000000000000e+00  -2.7204151107661268e-02 0.0000000000000000e+00 0.0000000000000000e+00  0.0000000000000000e+00 5.4608505541097080e-07 0.0000000000000000e+00  -6.5845764232835434e-07 -6.5845764247699411e-07 0.0000000000000000e+00  6.8975165439978622e-07 -3.6579528271839743e-06 0.0000000000000000e+00  5.8560150860551539e-06 -8.4863663490186106e-06 0.0000000000000000e+00  1.6767210256294628e-05 -1.5181964020411657e-05 0.0000000000000000e+00  3.5312676228459869e-05 -2.3737221571540083e-05 0.0000000000000000e+00  6.3341390450521580e-05 -3.4119941312603625e-05 0.0000000000000000e+00  1.0265782047367919e-04 -4.6283387947882014e-05 0.0000000000000000e+00  1.5501349309895147e-04 -6.0169189161836415e-05 0.0000000000000000e+00  2.2209659507416778e-04 -7.5707620501619188e-05 0.0000000000000000e+00  3.0552036676492999e-04 -9.2817044462001873e-05 0.0000000000000000e+00  4.0681041842184786e-04 -1.1140307696258031e-04 0.0000000000000000e+00  5.2739088832285384e-04 -1.3135766890281315e-04 0.0000000000000000e+00  6.6856925651777701e-04 -1.5255817759568578e-04 0.0000000000000000e+00  8.3151950842346269e-04 -1.7486647282946211e-04 0.0000000000000000e+00  1.0172631435527812e-03 -1.9812811645372050e-04 0.0000000000000000e+00  1.2266471740313479e-03 -2.2217165527457552e-04 0.0000000000000000e+00  1.4603176519443950e-03 -2.4680806960674024e-04 0.0000000000000000e+00  1.7186862428070623e-03 -2.7183042296412074e-04 0.0000000000000000e+00  2.0018856763647547e-03 -2.9701376126920002e-04 0.0000000000000000e+00  2.3097071814564716e-03 -3.2211531428976727e-04 0.0000000000000000e+00  2.6415086978601116e-03 -3.4687505795626361e-04 0.0000000000000000e+00  2.9960759731692626e-03 -3.7101670783853594e-04 0.0000000000000000e+00  3.3714085323270360e-03 -3.9424923302395896e-04 0.0000000000000000e+00  3.7643875832212188e-03 -4.1626901168664908e-04 0.0000000000000000e+00  4.1702615791216107e-03 -4.3676279722956062e-04 0.0000000000000000e+00  4.5818557495897402e-03 -4.5541172983767914e-04 0.0000000000000000e+00  4.9883732479646982e-03 -4.7189670674847514e-04 0.0000000000000000e+00  5.3736078587482417e-03 -4.8590550084925087e-04 0.0000000000000000e+00  5.7133346552979093e-03 -4.9714205469682932e-04 0.0000000000000000e+00  5.9715941390128717e-03 -5.0533831405590154e-04 0.0000000000000000e+00  6.0955542141136743e-03 -5.1026870384596526e-04 0.0000000000000000e+00  6.0086515260645646e-03 -5.1176675764945032e-04 0.0000000000000000e+00  5.6018212616435852e-03 -5.0974233304756271e-04 0.0000000000000000e+00  4.7228745970316621e-03 -5.0419611509525781e-04 0.0000000000000000e+00  3.1645239244336779e-03 -4.9522554652983632e-04 0.0000000000000000e+00  6.5220155050339497e-04 -4.8301245277701738e-04 0.0000000000000000e+00  -3.1664026775589725e-03 -4.6777528484636305e-04 0.0000000000000000e+00  -8.7274567160335794e-03 -4.4964858382024039e-04 0.0000000000000000e+00  -1.6549898609732022e-02 -4.2838174245688935e-04 0.0000000000000000e+00  -2.7225312420488184e-02 -4.0249429026123674e-04 0.0000000000000000e+00  0.0000000000000000e+00 2.7874380298976016e-06 0.0000000000000000e+00  -3.6579528279827048e-06 6.8975165459020653e-07 0.0000000000000000e+00  -5.2165969260658350e-06 -5.2165969260912079e-06 0.0000000000000000e+00  -2.9284265900597674e-06 -1.4892983224682192e-05 0.0000000000000000e+00  5.1053576453855616e-06 -2.8321492082114126e-05 0.0000000000000000e+00  2.0770394091805450e-05 -4.5461428563212686e-05 0.0000000000000000e+00  4.5919016973617524e-05 -6.6247480011937470e-05 0.0000000000000000e+00  8.2360320182680964e-05 -9.0590125085926262e-05 0.0000000000000000e+00  1.3185096156601307e-04 -1.1837629374105269e-04 0.0000000000000000e+00  1.9608504585775830e-04 -1.4946927710534261e-04 0.0000000000000000e+00  2.7668287146692726e-04 -1.8370786709344473e-04 0.0000000000000000e+00  3.7517850887169385e-04 -2.2090498441902927e-04 0.0000000000000000e+00  4.9300613081383615e-04 -2.6084603110079145e-04 0.0000000000000000e+00  6.3148492732785304e-04 -3.0328713692767510e-04 0.0000000000000000e+00  7.9180231258820573e-04 -3.4795342422131175e-04 0.0000000000000000e+00  9.7499492350673438e-04 -3.9453739447421369e-04 0.0000000000000000e+00  1.1819265544028435e-03 -4.4269753393159526e-04 0.0000000000000000e+00  1.4132615632427247e-03 -4.9205723647714338e-04 0.0000000000000000e+00  1.6694312609637830e-03 -5.4220414717766905e-04 0.0000000000000000e+00  1.9505891070754392e-03 -5.9269003668388943e-04 0.0000000000000000e+00  2.2565478065332480e-03 -6.4303132623900160e-04 0.0000000000000000e+00  2.5866870832346386e-03 -6.9271039577966753e-04 0.0000000000000000e+00  2.9398142115492276e-03 -7.4117782748524676e-04 0.0000000000000000e+00  3.3139492536377875e-03 -7.8785576663588353e-04 0.0000000000000000e+00  3.7059920098946189e-03 -8.3214262492692262e-04 0.0000000000000000e+00  4.1112063306336585e-03 -8.7341940958770615e-04 0.0000000000000000e+00  4.5224280189321408e-03 -9.1105803058692141e-04 0.0000000000000000e+00  4.9288639038643648e-03 -9.4443200158736396e-04 0.0000000000000000e+00  5.3143020164608621e-03 -9.7292997446416396e-04 0.0000000000000000e+00  5.6544993819724141e-03 -9.9597247042676734e-04 0.0000000000000000e+00  5.9134633257627084e-03 -1.0130319035945338e-03 0.0000000000000000e+00  6.0383113792419809e-03 -1.0236554181124822e-03 0.0000000000000000e+00  5.9524124956801157e-03 -1.0274890565077509e-03 0.0000000000000000e+00  5.5466202415499289e-03 -1.0243002434900813e-03 0.0000000000000000e+00  4.6686587483302866e-03 -1.0139934287818589e-03 0.0000000000000000e+00  3.1111624697131349e-03 -9.9661081039740065e-04 0.0000000000000000e+00  5.9951497340616773e-04 -9.7230564119328989e-04 0.0000000000000000e+00  -3.2185884200975168e-03 -9.4126744559484810e-04 0.0000000000000000e+00  -8.7792167513890164e-03 -9.0356147567595695e-04 0.0000000000000000e+00  -1.6600987992506873e-02 -8.5881311680292382e-04 0.0000000000000000e+00  -2.7274179455687903e-02 -8.0564289519775378e-04 0.0000000000000000e+00  0.0000000000000000e+00 8.8867005294278648e-06 0.0000000000000000e+00  -8.4863663499250205e-06 5.8560150854039719e-06 0.0000000000000000e+00  -1.4892983224602668e-05 -2.9284265905945603e-06 0.0000000000000000e+00  -1.7418949289634969e-05 -1.7418949288731459e-05 0.0000000000000000e+00  -1.4188824860712747e-05 -3.7563457367355407e-05 0.0000000000000000e+00  -3.3228743258354391e-06 -6.3287164240828165e-05 0.0000000000000000e+00  1.7031739199612907e-05 -9.4485442265899576e-05 0.0000000000000000e+00  4.8688196673503579e-05 -1.3102246345576092e-04 0.0000000000000000e+00  9.3409820338558828e-05 -1.7272992703250056e-04 0.0000000000000000e+00  1.5289967982055696e-04 -2.1940534657884949e-04 0.0000000000000000e+00  2.2878939269857404e-04 -2.7080996356881822e-04 0.0000000000000000e+00  3.2262686558250949e-04 -3.2666636423123982e-04 0.0000000000000000e+00  4.3586279073017223e-04 -3.8665589534519422e-04 0.0000000000000000e+00  5.6983568434588973e-04 -4.5041599533414547e-04 0.0000000000000000e+00  7.2575515125363984e-04 -5.1753756983532106e-04 0.0000000000000000e+00  9.0468286272239469e-04 -5.8756254914710032e-04 0.0000000000000000e+00  1.1075103810425319e-03 -6.5998177305959021e-04 0.0000000000000000e+00  1.3349323553338433e-03 -7.3423335808489359e-04 0.0000000000000000e+00  1.5874125876681609e-03 -8.0970171340984977e-04 0.0000000000000000e+00  1.8651387776168506e-03 -8.8571738488449402e-04 0.0000000000000000e+00  2.1679590210097032e-03 -9.6155792127202181e-04 0.0000000000000000e+00  2.4952888124234900e-03 -1.0364499752460365e-03 0.0000000000000000e+00  2.8459705975024088e-03 -1.1095728748058075e-03 0.0000000000000000e+00  3.2180577751143849e-03 -1.1800639306141438e-03 0.0000000000000000e+00  3.6084800952940546e-03 -1.2470257821298257e-03 0.0000000000000000e+00  4.0125260302792476e-03 -1.3095361268658785e-03 0.0000000000000000e+00  4.4230482822002681e-03 -1.3666602114269298e-03 0.0000000000000000e+00  4.8292599765081970e-03 -1.4174664660898653e-03 0.0000000000000000e+00  5.2149415357390207e-03 -1.4610455931799121e-03 0.0000000000000000e+00  5.5558249881549164e-03 -1.4965332077258070e-03 0.0000000000000000e+00  5.8158721384868944e-03 -1.5231356938664737e-03 0.0000000000000000e+00  5.9421326145934796e-03 -1.5401581958002879e-03 0.0000000000000000e+00  5.8578858753976087e-03 -1.5470325502559750e-03 0.0000000000000000e+00  5.4538795780694604e-03 -1.5433414865246612e-03 0.0000000000000000e+00  4.5777268891785397e-03 -1.5288336110645666e-03 0.0000000000000000e+00  3.0219652764914935e-03 -1.5034215200775596e-03 0.0000000000000000e+00  5.1192328902932886e-04 -1.4671524908933190e-03 0.0000000000000000e+00  -3.3046769871408889e-03 -1.4201368538563754e-03 0.0000000000000000e+00  -8.8637347758170788e-03 -1.3624133968831564e-03 0.0000000000000000e+00  -1.6683446038078038e-02 -1.2937294893392830e-03 0.0000000000000000e+00  -2.7353196896078107e-02 -1.2132399398954567e-03 0.0000000000000000e+00  0.0000000000000000e+00 2.0752149130586437e-05 0.0000000000000000e+00  -1.5181964019738664e-05 1.6767210256198198e-05 0.0000000000000000e+00  -2.8321492082110325e-05 5.1053576441283352e-06 0.0000000000000000e+00  -3.7563457367078088e-05 -1.4188824859445039e-05 0.0000000000000000e+00  -4.1039712599411714e-05 -4.1039712599158729e-05 0.0000000000000000e+00  -3.6874670562845227e-05 -7.5342358474308503e-05 0.0000000000000000e+00  -2.3214288106252693e-05 -1.1695545884874651e-04 0.0000000000000000e+00  1.7595965037241022e-06 -1.6569852060246078e-04 0.0000000000000000e+00  3.9818581044245444e-05 -2.2134947619745210e-04 0.0000000000000000e+00  9.2677329604018592e-05 -2.8364194570994281e-04 0.0000000000000000e+00  1.6198254087949863e-04 -3.5226207959192983e-04 0.0000000000000000e+00  2.4930089191877233e-04 -4.2684508290727569e-04 0.0000000000000000e+00  3.5610572232856383e-04 -5.0697154681971402e-04 0.0000000000000000e+00  4.8376221026297787e-04 -5.9216372144422244e-04 0.0000000000000000e+00  6.3351069739771987e-04 -6.8188187813566419e-04 0.0000000000000000e+00  8.0644762629797796e-04 -7.7552092768606916e-04 0.0000000000000000e+00  1.0035032024925848e-03 -8.7240748127716424e-04 0.0000000000000000e+00  1.2254142851121153e-03 -9.7179756180952321e-04 0.0000000000000000e+00  1.4726899836669154e-03 -1.0728751944682684e-03 0.0000000000000000e+00  1.7455657457658043e-03 -1.1747521266622411e-03 0.0000000000000000e+00  2.0439389846765329e-03 -1.2764689489015207e-03 0.0000000000000000e+00  2.3672749645674597e-03 -1.3769979105655399e-03 0.0000000000000000e+00  2.7144649510276570e-03 -1.4752477474457926e-03 0.0000000000000000e+00  3.0836084811954375e-03 -1.5700708612110318e-03 0.0000000000000000e+00  3.4716766490444492e-03 -1.6602732114285974e-03 0.0000000000000000e+00  3.8739919365300352e-03 -1.7446272909538707e-03 0.0000000000000000e+00  4.2834307315231220e-03 -1.8218885391680011e-03 0.0000000000000000e+00  4.6892161195958119e-03 -1.8908154771365173e-03 0.0000000000000000e+00  5.0751211016985898e-03 -1.9501936812577065e-03 0.0000000000000000e+00  5.4168493503184397e-03 -1.9988633916643572e-03 0.0000000000000000e+00  5.6783105828977594e-03 -2.0357500210065136e-03 0.0000000000000000e+00  5.8064775869900130e-03 -2.0598960505274029e-03 0.0000000000000000e+00  5.7245303783177133e-03 -2.0704917916558709e-03 0.0000000000000000e+00  5.3231015325425745e-03 -2.0669013516902606e-03 0.0000000000000000e+00  4.4496868641842090e-03 -2.0486790378099972e-03 0.0000000000000000e+00  2.8967251110605411e-03 -2.0155705121526835e-03 0.0000000000000000e+00  3.8949346748503265e-04 -1.9674923082333411e-03 0.0000000000000000e+00  -3.4242538380080643e-03 -1.9044829948294353e-03 0.0000000000000000e+00  -8.9802582101040414e-03 -1.8266208869309958e-03 0.0000000000000000e+00  -1.6796384802768970e-02 -1.7339129726098388e-03 0.0000000000000000e+00  -2.7461447435086668e-02 -1.6261970562715896e-03 0.0000000000000000e+00  0.0000000000000000e+00 4.0257750482347820e-05 0.0000000000000000e+00  -2.3737221571400665e-05 3.5312676230935577e-05 0.0000000000000000e+00  -4.5461428564162196e-05 2.0770394091657344e-05 0.0000000000000000e+00  -6.3287164241110775e-05 -3.3228743255854615e-06 0.0000000000000000e+00  -7.5342358471946732e-05 -3.6874670563193249e-05 0.0000000000000000e+00  -7.9753431428317815e-05 -7.9753431431865446e-05 0.0000000000000000e+00  -7.4664457184829208e-05 -1.3178419449525472e-04 0.0000000000000000e+00  -5.8251343076419794e-05 -1.9274489727542774e-04 0.0000000000000000e+00  -2.8732588002032043e-05 -2.6236299862197724e-04 0.0000000000000000e+00  1.5620538993494988e-05 -3.4031176109558010e-04 0.0000000000000000e+00  7.6473276927397827e-05 -4.2620607940801054e-04 0.0000000000000000e+00  1.5541563535078961e-04 -5.1959793227828940e-04 0.0000000000000000e+00  2.5394935074578051e-04 -6.1997159357492075e-04 0.0000000000000000e+00  3.7347325554164934e-04 -7.2673876417985361e-04 0.0000000000000000e+00  5.1526669023603143e-04 -8.3923380713438439e-04 0.0000000000000000e+00  6.8047039590111243e-04 -9.5670929272387501e-04 0.0000000000000000e+00  8.7006397247564994e-04 -1.0783320871419332e-03 0.0000000000000000e+00  1.0848383785130912e-03 -1.2031802478003702e-03 0.0000000000000000e+00  1.3253609203034656e-03 -1.3302410182226732e-03 0.0000000000000000e+00  1.5919284838549960e-03 -1.4584102452664368e-03 0.0000000000000000e+00  1.8845020252659292e-03 -1.5864935694406130e-03 0.0000000000000000e+00  2.2026110017036647e-03 -1.7132097649921552e-03 0.0000000000000000e+00  2.5452097131277553e-03 -1.8371966274119758e-03 0.0000000000000000e+00  2.9104573721380114e-03 -1.9570198196303813e-03 0.0000000000000000e+00  3.2953787670050474e-03 -2.0711850875064094e-03 0.0000000000000000e+00  3.6953410371596165e-03 -2.1781542299000173e-03 0.0000000000000000e+00  4.1032527328920361e-03 -2.2763651398755272e-03 0.0000000000000000e+00  4.5083528564161309e-03 -2.3642560943864673e-03 0.0000000000000000e+00  4.8944102792362531e-03 -2.4402942241361779e-03 0.0000000000000000e+00  5.2371010896439911e-03 -2.5030077046793654e-03 0.0000000000000000e+00  5.5002816527927037e-03 -2.5510206489572553e-03 0.0000000000000000e+00  5.6308454170897679e-03 -2.5830889646313920e-03 0.0000000000000000e+00  5.5518701979009183e-03 -2.5981346554612480e-03 0.0000000000000000e+00  5.1538713017445243e-03 -2.5952753794171385e-03 0.0000000000000000e+00  4.2842257034565239e-03 -2.5738457885302432e-03 0.0000000000000000e+00  2.7352711577884742e-03 -2.5334075144097558e-03 0.0000000000000000e+00  2.3222583566052908e-04 -2.4737457671511844e-03 0.0000000000000000e+00  -3.5771477453895324e-03 -2.3948525594051210e-03 0.0000000000000000e+00  -9.1284946965405796e-03 -2.2969006513686527e-03 0.0000000000000000e+00  -1.6939485560216280e-02 -2.1802227857397609e-03 0.0000000000000000e+00  -2.7598635575020798e-02 -2.0453411434144687e-03 0.0000000000000000e+00  0.0000000000000000e+00 6.9246754971492963e-05 0.0000000000000000e+00  -3.4119941310934198e-05 6.3341390449798973e-05 0.0000000000000000e+00  -6.6247480009911543e-05 4.5919016972027399e-05 0.0000000000000000e+00  -9.4485442263703701e-05 1.7031739199066107e-05 0.0000000000000000e+00  -1.1695545884711506e-04 -2.3214288108530229e-05 0.0000000000000000e+00  -1.3178419449516907e-04 -7.4664457185185558e-05 0.0000000000000000e+00  -1.3711352914595049e-04 -1.3711352914321136e-04 0.0000000000000000e+00  -1.3111296272780694e-04 -2.1030160266435839e-04 0.0000000000000000e+00  -1.1198994801433461e-04 -2.9390986078550838e-04 0.0000000000000000e+00  -7.7999681302410426e-05 -3.8755586769645330e-04 0.0000000000000000e+00  -2.7455384300989076e-05 -4.9078834340295595e-04 0.0000000000000000e+00  4.1260389221182914e-05 -6.0308149000810527e-04 0.0000000000000000e+00  1.2968307998892297e-04 -7.2382901195541186e-04 0.0000000000000000e+00  2.3925176344907054e-04 -8.5233801128320279e-04 0.0000000000000000e+00  3.7129270159549612e-04 -9.8782297080967588e-04 0.0000000000000000e+00  5.2700021179406071e-04 -1.1294000712899562e-03 0.0000000000000000e+00  7.0741390442076565e-04 -1.2760821245678667e-03 0.0000000000000000e+00  9.1339072948133030e-04 -1.4267744428133036e-03 0.0000000000000000e+00  1.1455692426331843e-03 -1.5802720032835238e-03 0.0000000000000000e+00  1.4043218052432159e-03 -1.7352583063005896e-03 0.0000000000000000e+00  1.6896876946036865e-03 -1.8903063596744172e-03 0.0000000000000000e+00  2.0012757681310044e-03 -2.0438822523321191e-03 0.0000000000000000e+00  2.3381186169216372e-03 -2.1943517997799729e-03 0.0000000000000000e+00  2.6984500001214422e-03 -2.3399907482423558e-03 0.0000000000000000e+00  3.0793624166950339e-03 -2.4789990040966509e-03 0.0000000000000000e+00  3.4762803584777648e-03 -2.6095192972212418e-03 0.0000000000000000e+00  3.8821554971680680e-03 -2.7296605728481960e-03 0.0000000000000000e+00  4.2862516738014327e-03 -2.8375262118446455e-03 0.0000000000000000e+00  4.6723403904450457e-03 -2.9312468784272201e-03 0.0000000000000000e+00  5.0160748413654137e-03 -3.0090173677782463e-03 0.0000000000000000e+00  5.2812609605248926e-03 -3.0691362805059649e-03 0.0000000000000000e+00  5.4147144149012897e-03 -3.1100467460696444e-03 0.0000000000000000e+00  5.3394112811254195e-03 -3.1303758967546895e-03 0.0000000000000000e+00  4.9457486684601282e-03 -3.1289705983600182e-03 0.0000000000000000e+00  4.0