<?xml version="1.0"?>
<VTKFile type="UnstructuredGrid"  version="0.1"  >
<UnstructuredGrid>
<Piece  NumberOfPoints="1681" NumberOfCells="3200">
<Points>
<DataArray  type="Float64"  NumberOfComponents="3"  format="ascii">0 0 0  0.5 0 0  1 0 0  1.5 0 0  2 0 0  2.5 0 0  3 0 0  3.5 0 0  4 0 0  4.5 0 0  5 0 0  5.5 0 0  6 0 0  6.5 0 0  7 0 0  7.5 0 0  8 0 0  8.5 0 0  9 0 0  9.5 0 0  10 0 0  10.5 0 0  11 0 0  11.5 0 0  12 0 0  12.5 0 0  13 0 0  13.5 0 0  14 0 0  14.5 0 0  15 0 0  15.5 0 0  16 0 0  16.5 0 0  17 0 0  17.5 0 0  18 0 0  18.5 0 0  19 0 0  19.5 0 0  20 0 0  0 0.5 0  0.5 0.5 0  1 0.5 0  1.5 0.5 0  2 0.5 0  2.5 0.5 0  3 0.5 0  3.5 0.5 0  4 0.5 0  4.5 0.5 0  5 0.5 0  5.5 0.5 0  6 0.5 0  6.5 0.5 0  7 0.5 0  7.5 0.5 0  8 0.5 0  8.5 0.5 0  9 0.5 0  9.5 0.5 0  10 0.5 0  10.5 0.5 0  11 0.5 0  11.5 0.5 0  12 0.5 0  12.5 0.5 0  13 0.5 0  13.5 0.5 0  14 0.5 0  14.5 0.5 0  15 0.5 0  15.5 0.5 0  16 0.5 0  16.5 0.5 0  17 0.5 0  17.5 0.5 0  18 0.5 0  18.5 0.5 0  19 0.5 0  19.5 0.5 0  20 0.5 0  0 1 0  0.5 1 0  1 1 0  1.5 1 0  2 1 0  2.5 1 0  3 1 0  3.5 1 0  4 1 0  4.5 1 0  5 1 0  5.5 1 0  6 1 0  6.5 1 0  7 1 0  7.5 1 0  8 1 0  8.5 1 0  9 1 0  9.5 1 0  10 1 0  10.5 1 0  11 1 0  11.5 1 0  12 1 0  12.5 1 0  13 1 0  13.5 1 0  14 1 0  14.5 1 0  15 1 0  15.5 1 0  16 1 0  16.5 1 0  17 1 0  17.5 1 0  18 1 0  18.5 1 0  19 1 0  19.5 1 0  20 1 0  0 1.5 0  0.5 1.5 0  1 1.5 0  1.5 1.5 0  2 1.5 0  2.5 1.5 0  3 1.5 0  3.5 1.5 0  4 1.5 0  4.5 1.5 0  5 1.5 0  5.5 1.5 0  6 1.5 0  6.5 1.5 0  7 1.5 0  7.5 1.5 0  8 1.5 0  8.5 1.5 0  9 1.5 0  9.5 1.5 0  10 1.5 0  10.5 1.5 0  11 1.5 0  11.5 1.5 0  12 1.5 0  12.5 1.5 0  13 1.5 0  13.5 1.5 0  14 1.5 0  14.5 1.5 0  15 1.5 0  15.5 1.5 0  16 1.5 0  16.5 1.5 0  17 1.5 0  17.5 1.5 0  18 1.5 0  18.5 1.5 0  19 1.5 0  19.5 1.5 0  20 1.5 0  0 2 0  0.5 2 0  1 2 0  1.5 2 0  2 2 0  2.5 2 0  3 2 0  3.5 2 0  4 2 0  4.5 2 0  5 2 0  5.5 2 0  6 2 0  6.5 2 0  7 2 0  7.5 2 0  8 2 0  8.5 2 0  9 2 0  9.5 2 0  10 2 0  10.5 2 0  11 2 0  11.5 2 0  12 2 0  12.5 2 0  13 2 0  13.5 2 0  14 2 0  14.5 2 0  15 2 0  15.5 2 0  16 2 0  16.5 2 0  17 2 0  17.5 2 0  18 2 0  18.5 2 0  19 2 0  19.5 2 0  20 2 0  0 2.5 0  0.5 2.5 0  1 2.5 0  1.5 2.5 0  2 2.5 0  2.5 2.5 0  3 2.5 0  3.5 2.5 0  4 2.5 0  4.5 2.5 0  5 2.5 0  5.5 2.5 0  6 2.5 0  6.5 2.5 0  7 2.5 0  7.5 2.5 0  8 2.5 0  8.5 2.5 0  9 2.5 0  9.5 2.5 0  10 2.5 0  10.5 2.5 0  11 2.5 0  11.5 2.5 0  12 2.5 0  12.5 2.5 0  13 2.5 0  13.5 2.5 0  14 2.5 0  14.5 2.5 0  15 2.5 0  15.5 2.5 0  16 2.5 0  16.5 2.5 0  17 2.5 0  17.5 2.5 0  18 2.5 0  18.5 2.5 0  19 2.5 0  19.5 2.5 0  20 2.5 0  0 3 0  0.5 3 0  1 3 0  1.5 3 0  2 3 0  2.5 3 0  3 3 0  3.5 3 0  4 3 0  4.5 3 0  5 3 0  5.5 3 0  6 3 0  6.5 3 0  7 3 0  7.5 3 0  8 3 0  8.5 3 0  9 3 0  9.5 3 0  10 3 0  10.5 3 0  11 3 0  11.5 3 0  12 3 0  12.5 3 0  13 3 0  13.5 3 0  14 3 0  14.5 3 0  15 3 0  15.5 3 0  16 3 0  16.5 3 0  17 3 0  17.5 3 0  18 3 0  18.5 3 0  19 3 0  19.5 3 0  20 3 0  0 3.5 0  0.5 3.5 0  1 3.5 0  1.5 3.5 0  2 3.5 0  2.5 3.5 0  3 3.5 0  3.5 3.5 0  4 3.5 0  4.5 3.5 0  5 3.5 0  5.5 3.5 0  6 3.5 0  6.5 3.5 0  7 3.5 0  7.5 3.5 0  8 3.5 0  8.5 3.5 0  9 3.5 0  9.5 3.5 0  10 3.5 0  10.5 3.5 0  11 3.5 0  11.5 3.5 0  12 3.5 0  12.5 3.5 0  13 3.5 0  13.5 3.5 0  14 3.5 0  14.5 3.5 0  15 3.5 0  15.5 3.5 0  16 3.5 0  16.5 3.5 0  17 3.5 0  17.5 3.5 0  18 3.5 0  18.5 3.5 0  19 3.5 0  19.5 3.5 0  20 3.5 0  0 4 0  0.5 4 0  1 4 0  1.5 4 0  2 4 0  2.5 4 0  3 4 0  3.5 4 0  4 4 0  4.5 4 0  5 4 0  5.5 4 0  6 4 0  6.5 4 0  7 4 0  7.5 4 0  8 4 0  8.5 4 0  9 4 0  9.5 4 0  10 4 0  10.5 4 0  11 4 0  11.5 4 0  12 4 0  12.5 4 0  13 4 0  13.5 4 0  14 4 0  14.5 4 0  15 4 0  15.5 4 0  16 4 0  16.5 4 0  17 4 0  17.5 4 0  18 4 0  18.5 4 0  19 4 0  19.5 4 0  20 4 0  0 4.5 0  0.5 4.5 0  1 4.5 0  1.5 4.5 0  2 4.5 0  2.5 4.5 0  3 4.5 0  3.5 4.5 0  4 4.5 0  4.5 4.5 0  5 4.5 0  5.5 4.5 0  6 4.5 0  6.5 4.5 0  7 4.5 0  7.5 4.5 0  8 4.5 0  8.5 4.5 0  9 4.5 0  9.5 4.5 0  10 4.5 0  10.5 4.5 0  11 4.5 0  11.5 4.5 0  12 4.5 0  12.5 4.5 0  13 4.5 0  13.5 4.5 0  14 4.5 0  14.5 4.5 0  15 4.5 0  15.5 4.5 0  16 4.5 0  16.5 4.5 0  17 4.5 0  17.5 4.5 0  18 4.5 0  18.5 4.5 0  19 4.5 0  19.5 4.5 0  20 4.5 0  0 5 0  0.5 5 0  1 5 0  1.5 5 0  2 5 0  2.5 5 0  3 5 0  3.5 5 0  4 5 0  4.5 5 0  5 5 0  5.5 5 0  6 5 0  6.5 5 0  7 5 0  7.5 5 0  8 5 0  8.5 5 0  9 5 0  9.5 5 0  10 5 0  10.5 5 0  11 5 0  11.5 5 0  12 5 0  12.5 5 0  13 5 0  13.5 5 0  14 5 0  14.5 5 0  15 5 0  15.5 5 0  16 5 0  16.5 5 0  17 5 0  17.5 5 0  18 5 0  18.5 5 0  19 5 0  19.5 5 0  20 5 0  0 5.5 0  0.5 5.5 0  1 5.5 0  1.5 5.5 0  2 5.5 0  2.5 5.5 0  3 5.5 0  3.5 5.5 0  4 5.5 0  4.5 5.5 0  5 5.5 0  5.5 5.5 0  6 5.5 0  6.5 5.5 0  7 5.5 0  7.5 5.5 0  8 5.5 0  8.5 5.5 0  9 5.5 0  9.5 5.5 0  10 5.5 0  10.5 5.5 0  11 5.5 0  11.5 5.5 0  12 5.5 0  12.5 5.5 0  13 5.5 0  13.5 5.5 0  14 5.5 0  14.5 5.5 0  15 5.5 0  15.5 5.5 0  16 5.5 0  16.5 5.5 0  17 5.5 0  17.5 5.5 0  18 5.5 0  18.5 5.5 0  19 5.5 0  19.5 5.5 0  20 5.5 0  0 6 0  0.5 6 0  1 6 0  1.5 6 0  2 6 0  2.5 6 0  3 6 0  3.5 6 0  4 6 0  4.5 6 0  5 6 0  5.5 6 0  6 6 0  6.5 6 0  7 6 0  7.5 6 0  8 6 0  8.5 6 0  9 6 0  9.5 6 0  10 6 0  10.5 6 0  11 6 0  11.5 6 0  12 6 0  12.5 6 0  13 6 0  13.5 6 0  14 6 0  14.5 6 0  15 6 0  15.5 6 0  16 6 0  16.5 6 0  17 6 0  17.5 6 0  18 6 0  18.5 6 0  19 6 0  19.5 6 0  20 6 0  0 6.5 0  0.5 6.5 0  1 6.5 0  1.5 6.5 0  2 6.5 0  2.5 6.5 0  3 6.5 0  3.5 6.5 0  4 6.5 0  4.5 6.5 0  5 6.5 0  5.5 6.5 0  6 6.5 0  6.5 6.5 0  7 6.5 0  7.5 6.5 0  8 6.5 0  8.5 6.5 0  9 6.5 0  9.5 6.5 0  10 6.5 0  10.5 6.5 0  11 6.5 0  11.5 6.5 0  12 6.5 0  12.5 6.5 0  13 6.5 0  13.5 6.5 0  14 6.5 0  14.5 6.5 0  15 6.5 0  15.5 6.5 0  16 6.5 0  16.5 6.5 0  17 6.5 0  17.5 6.5 0  18 6.5 0  18.5 6.5 0  19 6.5 0  19.5 6.5 0  20 6.5 0  0 7 0  0.5 7 0  1 7 0  1.5 7 0  2 7 0  2.5 7 0  3 7 0  3.5 7 0  4 7 0  4.5 7 0  5 7 0  5.5 7 0  6 7 0  6.5 7 0  7 7 0  7.5 7 0  8 7 0  8.5 7 0  9 7 0  9.5 7 0  10 7 0  10.5 7 0  11 7 0  11.5 7 0  12 7 0  12.5 7 0  13 7 0  13.5 7 0  14 7 0  14.5 7 0  15 7 0  15.5 7 0  16 7 0  16.5 7 0  17 7 0  17.5 7 0  18 7 0  18.5 7 0  19 7 0  19.5 7 0  20 7 0  0 7.5 0  0.5 7.5 0  1 7.5 0  1.5 7.5 0  2 7.5 0  2.5 7.5 0  3 7.5 0  3.5 7.5 0  4 7.5 0  4.5 7.5 0  5 7.5 0  5.5 7.5 0  6 7.5 0  6.5 7.5 0  7 7.5 0  7.5 7.5 0  8 7.5 0  8.5 7.5 0  9 7.5 0  9.5 7.5 0  10 7.5 0  10.5 7.5 0  11 7.5 0  11.5 7.5 0  12 7.5 0  12.5 7.5 0  13 7.5 0  13.5 7.5 0  14 7.5 0  14.5 7.5 0  15 7.5 0  15.5 7.5 0  16 7.5 0  16.5 7.5 0  17 7.5 0  17.5 7.5 0  18 7.5 0  18.5 7.5 0  19 7.5 0  19.5 7.5 0  20 7.5 0  0 8 0  0.5 8 0  1 8 0  1.5 8 0  2 8 0  2.5 8 0  3 8 0  3.5 8 0  4 8 0  4.5 8 0  5 8 0  5.5 8 0  6 8 0  6.5 8 0  7 8 0  7.5 8 0  8 8 0  8.5 8 0  9 8 0  9.5 8 0  10 8 0  10.5 8 0  11 8 0  11.5 8 0  12 8 0  12.5 8 0  13 8 0  13.5 8 0  14 8 0  14.5 8 0  15 8 0  15.5 8 0  16 8 0  16.5 8 0  17 8 0  17.5 8 0  18 8 0  18.5 8 0  19 8 0  19.5 8 0  20 8 0  0 8.5 0  0.5 8.5 0  1 8.5 0  1.5 8.5 0  2 8.5 0  2.5 8.5 0  3 8.5 0  3.5 8.5 0  4 8.5 0  4.5 8.5 0  5 8.5 0  5.5 8.5 0  6 8.5 0  6.5 8.5 0  7 8.5 0  7.5 8.5 0  8 8.5 0  8.5 8.5 0  9 8.5 0  9.5 8.5 0  10 8.5 0  10.5 8.5 0  11 8.5 0  11.5 8.5 0  12 8.5 0  12.5 8.5 0  13 8.5 0  13.5 8.5 0  14 8.5 0  14.5 8.5 0  15 8.5 0  15.5 8.5 0  16 8.5 0  16.5 8.5 0  17 8.5 0  17.5 8.5 0  18 8.5 0  18.5 8.5 0  19 8.5 0  19.5 8.5 0  20 8.5 0  0 9 0  0.5 9 0  1 9 0  1.5 9 0  2 9 0  2.5 9 0  3 9 0  3.5 9 0  4 9 0  4.5 9 0  5 9 0  5.5 9 0  6 9 0  6.5 9 0  7 9 0  7.5 9 0  8 9 0  8.5 9 0  9 9 0  9.5 9 0  10 9 0  10.5 9 0  11 9 0  11.5 9 0  12 9 0  12.5 9 0  13 9 0  13.5 9 0  14 9 0  14.5 9 0  15 9 0  15.5 9 0  16 9 0  16.5 9 0  17 9 0  17.5 9 0  18 9 0  18.5 9 0  19 9 0  19.5 9 0  20 9 0  0 9.5 0  0.5 9.5 0  1 9.5 0  1.5 9.5 0  2 9.5 0  2.5 9.5 0  3 9.5 0  3.5 9.5 0  4 9.5 0  4.5 9.5 0  5 9.5 0  5.5 9.5 0  6 9.5 0  6.5 9.5 0  7 9.5 0  7.5 9.5 0  8 9.5 0  8.5 9.5 0  9 9.5 0  9.5 9.5 0  10 9.5 0  10.5 9.5 0  11 9.5 0  11.5 9.5 0  12 9.5 0  12.5 9.5 0  13 9.5 0  13.5 9.5 0  14 9.5 0  14.5 9.5 0  15 9.5 0  15.5 9.5 0  16 9.5 0  16.5 9.5 0  17 9.5 0  17.5 9.5 0  18 9.5 0  18.5 9.5 0  19 9.5 0  19.5 9.5 0  20 9.5 0  0 10 0  0.5 10 0  1 10 0  1.5 10 0  2 10 0  2.5 10 0  3 10 0  3.5 10 0  4 10 0  4.5 10 0  5 10 0  5.5 10 0  6 10 0  6.5 10 0  7 10 0  7.5 10 0  8 10 0  8.5 10 0  9 10 0  9.5 10 0  10 10 0  10.5 10 0  11 10 0  11.5 10 0  12 10 0  12.5 10 0  13 10 0  13.5 10 0  14 10 0  14.5 10 0  15 10 0  15.5 10 0  16 10 0  16.5 10 0  17 10 0  17.5 10 0  18 10 0  18.5 10 0  19 10 0  19.5 10 0  20 10 0  0 10.5 0  0.5 10.5 0  1 10.5 0  1.5 10.5 0  2 10.5 0  2.5 10.5 0  3 10.5 0  3.5 10.5 0  4 10.5 0  4.5 10.5 0  5 10.5 0  5.5 10.5 0  6 10.5 0  6.5 10.5 0  7 10.5 0  7.5 10.5 0  8 10.5 0  8.5 10.5 0  9 10.5 0  9.5 10.5 0  10 10.5 0  10.5 10.5 0  11 10.5 0  11.5 10.5 0  12 10.5 0  12.5 10.5 0  13 10.5 0  13.5 10.5 0  14 10.5 0  14.5 10.5 0  15 10.5 0  15.5 10.5 0  16 10.5 0  16.5 10.5 0  17 10.5 0  17.5 10.5 0  18 10.5 0  18.5 10.5 0  19 10.5 0  19.5 10.5 0  20 10.5 0  0 11 0  0.5 11 0  1 11 0  1.5 11 0  2 11 0  2.5 11 0  3 11 0  3.5 11 0  4 11 0  4.5 11 0  5 11 0  5.5 11 0  6 11 0  6.5 11 0  7 11 0  7.5 11 0  8 11 0  8.5 11 0  9 11 0  9.5 11 0  10 11 0  10.5 11 0  11 11 0  11.5 11 0  12 11 0  12.5 11 0  13 11 0  13.5 11 0  14 11 0  14.5 11 0  15 11 0  15.5 11 0  16 11 0  16.5 11 0  17 11 0  17.5 11 0  18 11 0  18.5 11 0  19 11 0  19.5 11 0  20 11 0  0 11.5 0  0.5 11.5 0  1 11.5 0  1.5 11.5 0  2 11.5 0  2.5 11.5 0  3 11.5 0  3.5 11.5 0  4 11.5 0  4.5 11.5 0  5 11.5 0  5.5 11.5 0  6 11.5 0  6.5 11.5 0  7 11.5 0  7.5 11.5 0  8 11.5 0  8.5 11.5 0  9 11.5 0  9.5 11.5 0  10 11.5 0  10.5 11.5 0  11 11.5 0  11.5 11.5 0  12 11.5 0  12.5 11.5 0  13 11.5 0  13.5 11.5 0  14 11.5 0  14.5 11.5 0  15 11.5 0  15.5 11.5 0  16 11.5 0  16.5 11.5 0  17 11.5 0  17.5 11.5 0  18 11.5 0  18.5 11.5 0  19 11.5 0  19.5 11.5 0  20 11.5 0  0 12 0  0.5 12 0  1 12 0  1.5 12 0  2 12 0  2.5 12 0  3 12 0  3.5 12 0  4 12 0  4.5 12 0  5 12 0  5.5 12 0  6 12 0  6.5 12 0  7 12 0  7.5 12 0  8 12 0  8.5 12 0  9 12 0  9.5 12 0  10 12 0  10.5 12 0  11 12 0  11.5 12 0  12 12 0  12.5 12 0  13 12 0  13.5 12 0  14 12 0  14.5 12 0  
[...]
<PointData  Vectors="f_5623-0"> 
<DataArray  type="Float64"  Name="f_5623-0"  NumberOfComponents="3" format="ascii">0.0000000000000000e+00 0.0000000000000000e+00 0.0000000000000000e+00  -1.7808366820997295e-06 0.0000000000000000e+00 0.0000000000000000e+00  7.8736282384060884e-06 0.0000000000000000e+00 0.0000000000000000e+00  4.5200130870542960e-05 0.0000000000000000e+00 0.0000000000000000e+00  1.2382764753620095e-04 0.0000000000000000e+00 0.0000000000000000e+00  2.5682404701868095e-04 0.0000000000000000e+00 0.0000000000000000e+00  4.5667495504733702e-04 0.0000000000000000e+00 0.0000000000000000e+00  7.3508573657020176e-04 0.0000000000000000e+00 0.0000000000000000e+00  1.1027428527492092e-03 0.0000000000000000e+00 0.0000000000000000e+00  1.5690317480742454e-03 0.0000000000000000e+00 0.0000000000000000e+00  2.1416992099341317e-03 0.0000000000000000e+00 0.0000000000000000e+00  2.8264472793079645e-03 0.0000000000000000e+00 0.0000000000000000e+00  3.6264447402578367e-03 0.0000000000000000e+00 0.0000000000000000e+00  4.5417409558051987e-03 0.0000000000000000e+00 0.0000000000000000e+00  5.5685656823061275e-03 0.0000000000000000e+00 0.0000000000000000e+00  6.6984977628307893e-03 0.0000000000000000e+00 0.0000000000000000e+00  7.9174855778791995e-03 0.0000000000000000e+00 0.0000000000000000e+00  9.2047032008902678e-03 0.0000000000000000e+00 0.0000000000000000e+00  1.0531228842798477e-02 0.0000000000000000e+00 0.0000000000000000e+00  1.1858536951855255e-02 0.0000000000000000e+00 0.0000000000000000e+00  1.3136802925428664e-02 0.0000000000000000e+00 0.0000000000000000e+00  1.4303030499716962e-02 0.0000000000000000e+00 0.0000000000000000e+00  1.5279027186087688e-02 0.0000000000000000e+00 0.0000000000000000e+00  1.5969273119215224e-02 0.0000000000000000e+00 0.0000000000000000e+00  1.6258753490545657e-02 0.0000000000000000e+00 0.0000000000000000e+00  1.6010853810679602e-02 0.0000000000000000e+00 0.0000000000000000e+00  1.5065449022156495e-02 0.0000000000000000e+00 0.0000000000000000e+00  1.3237349070710648e-02 0.0000000000000000e+00 0.0000000000000000e+00  1.0315290469775888e-02 0.0000000000000000e+00 0.0000000000000000e+00  6.0616796653274081e-03 0.0000000000000000e+00 0.0000000000000000e+00  2.1329262543454998e-04 0.0000000000000000e+00 0.0000000000000000e+00  -7.5168908203937746e-03 0.0000000000000000e+00 0.0000000000000000e+00  -1.7436594703926910e-02 0.0000000000000000e+00 0.0000000000000000e+00  -2.9869859053118463e-02 0.0000000000000000e+00 0.0000000000000000e+00  -4.5151429012123830e-02 0.0000000000000000e+00 0.0000000000000000e+00  -6.3620115124241372e-02 0.0000000000000000e+00 0.0000000000000000e+00  -8.5611429297963518e-02 0.0000000000000000e+00 0.0000000000000000e+00  -1.1144985889556536e-01 0.0000000000000000e+00 0.0000000000000000e+00  -1.4144102209314369e-01 0.0000000000000000e+00 0.0000000000000000e+00  -1.7586307350735583e-01 0.0000000000000000e+00 0.0000000000000000e+00  -2.1495386824623156e-01 0.0000000000000000e+00 0.0000000000000000e+00  0.0000000000000000e+00 -1.7808366826183292e-06 0.0000000000000000e+00  -1.1398109107846847e-05 -1.1398109108502023e-05 0.0000000000000000e+00  -8.3731456754064446e-06 -3.4562810926083945e-05 0.0000000000000000e+00  2.1961979176442276e-05 -7.1474225120050355e-05 0.0000000000000000e+00  9.3375457850794353e-05 -1.2251465292783235e-04 0.0000000000000000e+00  2.1907947890571831e-04 -1.8768580270333906e-04 0.0000000000000000e+00  4.1161826841972432e-04 -2.6677692070157388e-04 0.0000000000000000e+00  6.8272312674664962e-04 -3.5945679609815275e-04 0.0000000000000000e+00  1.0430966303982536e-03 -4.6530393107967026e-04 0.0000000000000000e+00  1.5021385829186100e-03 -5.8381296578298718e-04 0.0000000000000000e+00  2.0676113625891883e-03 -7.1439300733027865e-04 0.0000000000000000e+00  2.7452350824548298e-03 -8.5636315258783447e-04 0.0000000000000000e+00  3.5381996686795758e-03 -1.0089469700817104e-03 0.0000000000000000e+00  4.4465789842733803e-03 -1.1712666124082934e-03 0.0000000000000000e+00  5.4666307561975934e-03 -1.3423369072286249e-03 0.0000000000000000e+00  6.5899652505221713e-03 -1.5210596908951026e-03 0.0000000000000000e+00  7.8025655877195042e-03 -1.7062186440781901e-03 0.0000000000000000e+00  9.0836436481760482e-03 -1.8964749123951638e-03 0.0000000000000000e+00  1.0404318152795950e-02 -2.0903638320761654e-03 0.0000000000000000e+00  1.1726106288289122e-02 -2.2862931247274367e-03 0.0000000000000000e+00  1.2999227843677671e-02 -2.4825429729201675e-03 0.0000000000000000e+00  1.4160731942297717e-02 -2.6772684374201630e-03 0.0000000000000000e+00  1.5132471765715961e-02 -2.8685047225023167e-03 0.0000000000000000e+00  1.5818972670662394e-02 -3.0541758333061508e-03 0.0000000000000000e+00  1.6105263912339889e-02 -3.2321071899988302e-03 0.0000000000000000e+00  1.5854773253878476e-02 -3.4000427576675952e-03 0.0000000000000000e+00  1.4907415504742552e-02 -3.5556672057411661e-03 0.0000000000000000e+00  1.3078037589389989e-02 -3.6966335112280130e-03 0.0000000000000000e+00  1.0155409632689013e-02 -3.8205962517114025e-03 0.0000000000000000e+00  5.9019677692556342e-03 -3.9252505823550391e-03 0.0000000000000000e+00  5.4512940980309997e-05 -4.0083765485530677e-03 0.0000000000000000e+00  -7.6739560272995931e-03 -4.0678879555534966e-03 0.0000000000000000e+00  -1.7591152248956209e-02 -4.1018845268394099e-03 0.0000000000000000e+00  -3.0021116515857878e-02 -4.1087056032143732e-03 0.0000000000000000e+00  -4.5298613089532445e-02 -4.0869832839751175e-03 0.0000000000000000e+00  -6.3762504059515168e-02 -4.0356927550946192e-03 0.0000000000000000e+00  -8.5748420794601862e-02 -3.9541968700050082e-03 0.0000000000000000e+00  -1.1158114816862662e-01 -3.8422758331097782e-03 0.0000000000000000e+00  -1.4156721150317969e-01 -3.7000974763442161e-03 0.0000000000000000e+00  -1.7598836195655343e-01 -3.5279263171241401e-03 0.0000000000000000e+00  -2.1509818976853889e-01 -3.3248713072799663e-03 0.0000000000000000e+00  0.0000000000000000e+00 7.8736282383318527e-06 0.0000000000000000e+00  -3.4562810926728889e-05 -8.3731456778902163e-06 0.0000000000000000e+00  -5.3701034002550748e-05 -5.3701034003427474e-05 0.0000000000000000e+00  -4.5233774194300816e-05 -1.2764516977738203e-04 0.0000000000000000e+00  4.3211319071924720e-06 -2.3007529439864093e-04 0.0000000000000000e+00  1.0812757550128461e-04 -3.6071941427324951e-04 0.0000000000000000e+00  2.7875241778459940e-04 -5.1912473870730684e-04 0.0000000000000000e+00  5.2796208695935225e-04 -7.0465488794792816e-04 0.0000000000000000e+00  8.6649660734195973e-04 -9.1649648479567663e-04 0.0000000000000000e+00  1.3037965211339119e-03 -1.1536622132429079e-03 0.0000000000000000e+00  1.8476706752092735e-03 -1.4149881927955888e-03 0.0000000000000000e+00  2.5038934014703753e-03 -1.6991270758361006e-03 0.0000000000000000e+00  3.2757180196363667e-03 -2.0045385420971308e-03 0.0000000000000000e+00  4.1632918985336272e-03 -2.3294784321580284e-03 0.0000000000000000e+00  5.1629569339786833e-03 -2.6719873964570627e-03 0.0000000000000000e+00  6.2664184394244380e-03 -3.0298797405596120e-03 0.0000000000000000e+00  7.4597653550910904e-03 -3.4007330763398281e-03 0.0000000000000000e+00  8.7223257154953882e-03 -3.7818793913341193e-03 0.0000000000000000e+00  1.0025343936652579e-02 -4.1703981945197645e-03 0.0000000000000000e+00  1.1330471262428300e-02 -4.5631124678595699e-03 0.0000000000000000e+00  1.2588068304314352e-02 -4.9565882398690522e-03 0.0000000000000000e+00  1.3735329728519501e-02 -5.3471386928075539e-03 0.0000000000000000e+00  1.4694256460812089e-02 -5.7308338112365964e-03 0.0000000000000000e+00  1.5369520791979917e-02 -6.1035166669473097e-03 0.0000000000000000e+00  1.5646294588827259e-02 -6.4608274995828999e-03 0.0000000000000000e+00  1.5388139895266538e-02 -6.7982367733357566e-03 0.0000000000000000e+00  1.4435092986649368e-02 -7.1110883425505094e-03 0.0000000000000000e+00  1.2602104518543164e-02 -7.3946537085893748e-03 0.0000000000000000e+00  9.6780253184397293e-03 -7.6441980605013752e-03 0.0000000000000000e+00  5.4253436119606740e-03 -7.8550583238834060e-03 0.0000000000000000e+00  -4.1912195621492316e-04 -8.0227327678581237e-03 0.0000000000000000e+00  -8.1423951452900614e-03 -8.1429808307041922e-03 0.0000000000000000e+00  -1.8052258007210231e-02 -8.2119307471104439e-03 0.0000000000000000e+00  -3.0472873242060158e-02 -8.2261913465556582e-03 0.0000000000000000e+00  -4.5739188309640445e-02 -8.1829630521440891e-03 0.0000000000000000e+00  -6.4190322616003645e-02 -8.0801413788943646e-03 0.0000000000000000e+00  -8.6162262103782000e-02 -7.9164031408950411e-03 0.0000000000000000e+00  -1.1198028613258766e-01 -7.6912596606353145e-03 0.0000000000000000e+00  -1.4195161376311013e-01 -7.4050576222955715e-03 0.0000000000000000e+00  -1.7635877257361626e-01 -7.0589653219924348e-03 0.0000000000000000e+00  -2.1545396562736396e-01 -6.6554750178420136e-03 0.0000000000000000e+00  0.0000000000000000e+00 4.5200130872042886e-05 0.0000000000000000e+00  -7.1474225119301225e-05 2.1961979173297337e-05 0.0000000000000000e+00  -1.2764516977951793e-04 -4.5233774195167012e-05 0.0000000000000000e+00  -1.5586339323571052e-04 -1.5586339323504721e-04 0.0000000000000000e+00  -1.4288208580171436e-04 -3.0949940543685442e-04 0.0000000000000000e+00  -7.5607030128409922e-05 -5.0559210169186990e-04 0.0000000000000000e+00  5.8519340258621964e-05 -7.4338394895022918e-04 0.0000000000000000e+00  2.7128531955907616e-04 -1.0218915894538996e-03 0.0000000000000000e+00  5.7347253569579046e-04 -1.3398956454227745e-03 0.0000000000000000e+00  9.7457867440438729e-04 -1.6959299929989588e-03 0.0000000000000000e+00  1.4824845284298546e-03 -2.0882694813077881e-03 0.0000000000000000e+00  2.1030518320243408e-03 -2.5149158394876126e-03 0.0000000000000000e+00  2.8396378103344769e-03 -2.9735819571326755e-03 0.0000000000000000e+00  3.6925112265679912e-03 -3.4616750399564912e-03 0.0000000000000000e+00  4.6581535771436930e-03 -3.9762793071270366e-03 0.0000000000000000e+00  5.7284283237389322e-03 -4.5141389783950030e-03 0.0000000000000000e+00  6.8896009959159921e-03 -5.0716423599175848e-03 0.0000000000000000e+00  8.1211940400739303e-03 -5.6448079079057288e-03 0.0000000000000000e+00  9.3946629093353100e-03 -6.2292732416486122e-03 0.0000000000000000e+00  1.0671884662333217e-02 -6.8202881916037050e-03 0.0000000000000000e+00  1.1903457929541776e-02 -7.4127131028228722e-03 0.0000000000000000e+00  1.3026824223712265e-02 -8.0010237627832527e-03 0.0000000000000000e+00  1.3964235890035287e-02 -8.5793244782045343e-03 0.0000000000000000e+00  1.4620616012217277e-02 -9.1413709747595294e-03 0.0000000000000000e+00  1.4881380429022676e-02 -9.6806049170511319e-03 0.0000000000000000e+00  1.4610321122833910e-02 -1.0190201914718975e-02 0.0000000000000000e+00  1.3647682063208823e-02 -1.0663134853344157e-02 0.0000000000000000e+00  1.1808590227438930e-02 -1.1092254212889301e-02 0.0000000000000000e+00  8.8820315098053128e-03 -1.1470386648515681e-02 0.0000000000000000e+00  4.6305775743210468e-03 -1.1790452441870247e-02 0.0000000000000000e+00  -1.2089316178988576e-03 -1.2045601428237634e-02 0.0000000000000000e+00  -8.9235707809060174e-03 -1.2229365636081362e-02 0.0000000000000000e+00  -1.8821254480884977e-02 -1.2335825158212460e-02 0.0000000000000000e+00  -3.1226367397080564e-02 -1.2359781779642500e-02 0.0000000000000000e+00  -4.6474174392091651e-02 -1.2296932739892573e-02 0.0000000000000000e+00  -6.4904210704006510e-02 -1.2144034937949485e-02 0.0000000000000000e+00  -8.6852973776834472e-02 -1.1899048731888172e-02 0.0000000000000000e+00  -1.1264633374565650e-01 -1.1561253817784644e-02 0.0000000000000000e+00  -1.4259213112423111e-01 -1.1131350065062620e-02 0.0000000000000000e+00  -1.7697343362766033e-01 -1.0611625890463416e-02 0.0000000000000000e+00  -2.1604288452337606e-01 -1.0006430127043286e-02 0.0000000000000000e+00  0.0000000000000000e+00 1.2382764753573330e-04 0.0000000000000000e+00  -1.2251465292790938e-04 9.3375457848407454e-05 0.0000000000000000e+00  -2.3007529440142730e-04 4.3211319073810003e-06 0.0000000000000000e+00  -3.0949940543982172e-04 -1.4288208580219311e-04 0.0000000000000000e+00  -3.4761559010650919e-04 -3.4761559010520137e-04 0.0000000000000000e+00  -3.3138043461662485e-04 -6.0908972667556244e-04 0.0000000000000000e+00  -2.4824071284963722e-04 -9.2626382485116662e-04 0.0000000000000000e+00  -8.6382399199914337e-05 -1.2978167949519075e-03 0.0000000000000000e+00  1.6502545772736861e-04 -1.7221285932122225e-03 0.0000000000000000e+00  5.1555201758575920e-04 -2.1972621911609466e-03 0.0000000000000000e+00  9.7317193929531503e-04 -2.7209438050165144e-03 0.0000000000000000e+00  1.5438641139850649e-03 -3.2905412901068107e-03 0.0000000000000000e+00  2.2311273350366428e-03 -3.9030410814143270e-03 0.0000000000000000e+00  3.0353974147155501e-03 -4.5550242110843466e-03 0.0000000000000000e+00  3.9533491979283179e-03 -5.2426420587558201e-03 0.0000000000000000e+00  4.9770662059808509e-03 -5.9615926243959385e-03 0.0000000000000000e+00  6.0930606126283378e-03 -6.7070982538573395e-03 0.0000000000000000e+00  7.2811273074682922e-03 -7.4738858947160525e-03 0.0000000000000000e+00  8.5130184228136424e-03 -8.2561711210174145e-03 0.0000000000000000e+00  9.7509294704118416e-03 -9.0476473436831972e-03 0.0000000000000000e+00  1.0945795820586236e-02 -9.8414818216688727e-03 0.0000000000000000e+00  1.2035409371096721e-02 -1.0630320305090020e-02 0.0000000000000000e+00  1.2942380573339145e-02 -1.1406302369465594e-02 0.0000000000000000e+00  1.3571991013461926e-02 -1.2161089724758831e-02 0.0000000000000000e+00  1.3810006606752544e-02 -1.2885909980526699e-02 0.0000000000000000e+00  1.3520550612339165e-02 -1.3571618480363768e-02 0.0000000000000000e+00  1.2544167564614633e-02 -1.4208780829686555e-02 0.0000000000000000e+00  1.0696240958958936e-02 -1.4787778557278204e-02 0.0000000000000000e+00  7.7659546602764380e-03 -1.5298939881907933e-02 0.0000000000000000e+00  3.5160045255766825e-03 -1.5732696703471476e-02 0.0000000000000000e+00  -2.3167343830218031e-03 -1.6079767614528572e-02 0.0000000000000000e+00  -1.0019405306405074e-02 -1.6331364882897020e-02 0.0000000000000000e+00  -1.9900107653508536e-02 -1.6479421013702669e-02 0.0000000000000000e+00  -3.2283536837396008e-02 -1.6516827806228564e-02 0.0000000000000000e+00  -4.7505399307854496e-02 -1.6437678114403494e-02 0.0000000000000000e+00  -6.5905801261280192e-02 -1.6237498483050526e-02 0.0000000000000000e+00  -8.7821930539452586e-02 -1.5913460850139352e-02 0.0000000000000000e+00  -1.1358044834194288e-01 -1.5464566124123131e-02 0.0000000000000000e+00  -1.4349006720697222e-01 -1.4891804176003545e-02 0.0000000000000000e+00  -1.7783481985420133e-01 -1.4198305211967637e-02 0.0000000000000000e+00  -2.1686855972993332e-01 -1.3389440653759547e-02 0.0000000000000000e+00  0.0000000000000000e+00 2.5682404701883523e-04 0.0000000000000000e+00  -1.8768580270605540e-04 2.1907947890538459e-04 0.0000000000000000e+00  -3.6071941427586108e-04 1.0812757550255120e-04 0.0000000000000000e+00  -5.0559210169583233e-04 -7.5607030129690216e-05 0.0000000000000000e+00  -6.0908972667783861e-04 -3.3138043461647154e-04 0.0000000000000000e+00  -6.5819436745750569e-04 -6.5819436745583396e-04 0.0000000000000000e+00  -6.4035000215394980e-04 -1.0547482549297222e-03 0.0000000000000000e+00  -5.4371031027663987e-04 -1.5194046604058847e-03 0.0000000000000000e+00  -3.5738497740465806e-04 -2.0501639456547843e-03 0.0000000000000000e+00  -7.1718445859574555e-05 -2.6446397613062614e-03 0.0000000000000000e+00  3.2137871740744512e-04 -3.3000327396092012e-03 0.0000000000000000e+00  8.2803034524672953e-04 -4.0131020120061645e-03 0.0000000000000000e+00  1.4519121286489661e-03 -4.7801349169108069e-03 0.0000000000000000e+00  2.1936702880769269e-03 -5.5969155429678348e-03 0.0000000000000000e+00  3.0502247505843111e-03 -6.4586929108451149e-03 0.0000000000000000e+00  4.0139394251837070e-03 -7.3601497406944614e-03 0.0000000000000000e+00  5.0716421375461432e-03 -8.2953729136358411e-03 0.0000000000000000e+00  6.2034778312525457e-03 -9.2578269204235276e-03 0.0000000000000000e+00  7.3815812546016895e-03 -1.0240331801505529e-02 0.0000000000000000e+00  8.5685601116886577e-03 -1.1235047320847350e-02 0.0000000000000000e+00  9.7157872323707078e-03 -1.2233465382178035e-02 0.0000000000000000e+00  1.0761511422807265e-02 -1.3226412988629910e-02 0.0000000000000000e+00  1.1628811977076613e-02 -1.4204068357848315e-02 0.0000000000000000e+00  1.2223441869617361e-02 -1.5155993117922626e-02 0.0000000000000000e+00  1.2431629536742754e-02 -1.6071183796038831e-02 0.0000000000000000e+00  1.2117938358694168e-02 -1.6938146023658979e-02 0.0000000000000000e+00  1.1123314935543260e-02 -1.7744994949608964e-02 0.0000000000000000e+00  9.2634891332670811e-03 -1.8479585180370177e-02 0.0000000000000000e+00  6.3279162056783609e-03 -1.9129673037334927e-02 0.0000000000000000e+00  2.0794680780651612e-03 -1.9683112902886830e-02 0.0000000000000000e+00  -3.7449199343885975e-03 -2.0128087801067861e-02 0.0000000000000000e+00  -1.1432466070006118e-02 -2.0453372052167598e-02 0.0000000000000000e+00  -2.1291496860008828e-02 -2.0648620885225066e-02 0.0000000000000000e+00  -3.3647099580094243e-02 -2.0704678489899899e-02 0.0000000000000000e+00  -4.8835543920650704e-02 -2.0613892581852377e-02 0.0000000000000000e+00  -6.7197669977099583e-02 -2.0370420871316113e-02 0.0000000000000000e+00  -8.9071561844123903e-02 -1.9970513756798713e-02 0.0000000000000000e+00  -1.1478492583527201e-01 -1.9412758413291310e-02 0.0000000000000000e+00  -1.4464765529353804e-01 -1.8698269190484579e-02 0.0000000000000000e+00  -1.7894508564160971e-01 -1.7830794935598790e-02 0.0000000000000000e+00  -2.1793242635265456e-01 -1.6816653968028270e-02 0.0000000000000000e+00  0.0000000000000000e+00 4.5667495504635787e-04 0.0000000000000000e+00  -2.6677692070155816e-04 4.1161826842127304e-04 0.0000000000000000e+00  -5.1912473870465608e-04 2.7875241778544557e-04 0.0000000000000000e+00  -7.4338394894705485e-04 5.8519340258926449e-05 0.0000000000000000e+00  -9.2626382485051957e-04 -2.4824071285082269e-04 0.0000000000000000e+00  -1.0547482549253197e-03 -6.4035000215364232e-04 0.0000000000000000e+00  -1.1162722745589534e-03 -1.1162722745635834e-03 0.0000000000000000e+00  -1.0989528288847983e-03 -1.6740786344949167e-03 0.0000000000000000e+00  -9.9183255971124307e-04 -2.3114168655905608e-03 0.0000000000000000e+00  -7.8515685345726012e-04 -3.0254806818891659e-03 0.0000000000000000e+00  -4.7070289773784650e-04 -3.8129768440345992e-03 0.0000000000000000e+00  -4.2176574119712319e-05 -4.6700896955158668e-03 0.0000000000000000e+00  5.0430750182985855e-04 -5.5924434460996415e-03 0.0000000000000000e+00  1.1696468316504086e-03 -6.5750628930469996e-03 0.0000000000000000e+00  1.9510558910598018e-03 -7.6123334921874243e-03 0.0000000000000000e+00  2.8412374275844482e-03 -8.6979618793288239e-03 0.0000000000000000e+00  3.8274025990259783e-03 -9.8249381399123370e-03 0.0000000000000000e+00  4.8901233859512750e-03 -1.0985501348353063e-02 0.0000000000000000e+00  6.0020033049015785e-03 -1.2171110156224536e-02 0.0000000000000000e+00  7.1261571892783414e-03 -1.3372420504001562e-02 0.0000000000000000e+00  8.2144983618673232e-03 -1.4579272866636591e-02 0.0000000000000000e+00  9.2058426151290177e-03 -1.5780691816741684e-02 0.0000000000000000e+00  1.0023853726807358e-02 -1.6964901092548643e-02 0.0000000000000000e+00  1.0574875285052937e-02 -1.8119357772040219e-02 0.0000000000000000e+00  1.0745718516024960e-02 -1.9230809546096250e-02 0.0000000000000000e+00  1.0401505075708046e-02 -2.0285379394399103e-02 0.0000000000000000e+00  9.3836958644533865e-03 -2.1268682114361538e-02 0.0000000000000000e+00  7.5084689845021906e-03 -2.2165977018443830e-02 0.0000000000000000e+00  4.5656375446258956e-03 -2.2962360552314525e-02 0.0000000000000000e+00  3.1831512702032140e-04 -2.3643001430857225e-02 0.0000000000000000e+00  -5.4964636904983512e-03 -2.4193418983863658e-02 0.0000000000000000e+00  -1.3165985328257938e-02 -2.4599802647362466e-02 0.0000000000000000e+00  -2.2998833979952074e-02 -2.4849366945414859e-02 0.0000000000000000e+00  -3.5320561040209496e-02 