<?xml version="1.0"?>
<VTKFile type="UnstructuredGrid"  version="0.1"  >
<UnstructuredGrid>
<Piece  NumberOfPoints="1681" NumberOfCells="3200">
<Points>
<DataArray  type="Float64"  NumberOfComponents="3"  format="ascii">0 0 0  0.5 0 0  1 0 0  1.5 0 0  2 0 0  2.5 0 0  3 0 0  3.5 0 0  4 0 0  4.5 0 0  5 0 0  5.5 0 0  6 0 0  6.5 0 0  7 0 0  7.5 0 0  8 0 0  8.5 0 0  9 0 0  9.5 0 0  10 0 0  10.5 0 0  11 0 0  11.5 0 0  12 0 0  12.5 0 0  13 0 0  13.5 0 0  14 0 0  14.5 0 0  15 0 0  15.5 0 0  16 0 0  16.5 0 0  17 0 0  17.5 0 0  18 0 0  18.5 0 0  19 0 0  19.5 0 0  20 0 0  0 0.5 0  0.5 0.5 0  1 0.5 0  1.5 0.5 0  2 0.5 0  2.5 0.5 0  3 0.5 0  3.5 0.5 0  4 0.5 0  4.5 0.5 0  5 0.5 0  5.5 0.5 0  6 0.5 0  6.5 0.5 0  7 0.5 0  7.5 0.5 0  8 0.5 0  8.5 0.5 0  9 0.5 0  9.5 0.5 0  10 0.5 0  10.5 0.5 0  11 0.5 0  11.5 0.5 0  12 0.5 0  12.5 0.5 0  13 0.5 0  13.5 0.5 0  14 0.5 0  14.5 0.5 0  15 0.5 0  15.5 0.5 0  16 0.5 0  16.5 0.5 0  17 0.5 0  17.5 0.5 0  18 0.5 0  18.5 0.5 0  19 0.5 0  19.5 0.5 0  20 0.5 0  0 1 0  0.5 1 0  1 1 0  1.5 1 0  2 1 0  2.5 1 0  3 1 0  3.5 1 0  4 1 0  4.5 1 0  5 1 0  5.5 1 0  6 1 0  6.5 1 0  7 1 0  7.5 1 0  8 1 0  8.5 1 0  9 1 0  9.5 1 0  10 1 0  10.5 1 0  11 1 0  11.5 1 0  12 1 0  12.5 1 0  13 1 0  13.5 1 0  14 1 0  14.5 1 0  15 1 0  15.5 1 0  16 1 0  16.5 1 0  17 1 0  17.5 1 0  18 1 0  18.5 1 0  19 1 0  19.5 1 0  20 1 0  0 1.5 0  0.5 1.5 0  1 1.5 0  1.5 1.5 0  2 1.5 0  2.5 1.5 0  3 1.5 0  3.5 1.5 0  4 1.5 0  4.5 1.5 0  5 1.5 0  5.5 1.5 0  6 1.5 0  6.5 1.5 0  7 1.5 0  7.5 1.5 0  8 1.5 0  8.5 1.5 0  9 1.5 0  9.5 1.5 0  10 1.5 0  10.5 1.5 0  11 1.5 0  11.5 1.5 0  12 1.5 0  12.5 1.5 0  13 1.5 0  13.5 1.5 0  14 1.5 0  14.5 1.5 0  15 1.5 0  15.5 1.5 0  16 1.5 0  16.5 1.5 0  17 1.5 0  17.5 1.5 0  18 1.5 0  18.5 1.5 0  19 1.5 0  19.5 1.5 0  20 1.5 0  0 2 0  0.5 2 0  1 2 0  1.5 2 0  2 2 0  2.5 2 0  3 2 0  3.5 2 0  4 2 0  4.5 2 0  5 2 0  5.5 2 0  6 2 0  6.5 2 0  7 2 0  7.5 2 0  8 2 0  8.5 2 0  9 2 0  9.5 2 0  10 2 0  10.5 2 0  11 2 0  11.5 2 0  12 2 0  12.5 2 0  13 2 0  13.5 2 0  14 2 0  14.5 2 0  15 2 0  15.5 2 0  16 2 0  16.5 2 0  17 2 0  17.5 2 0  18 2 0  18.5 2 0  19 2 0  19.5 2 0  20 2 0  0 2.5 0  0.5 2.5 0  1 2.5 0  1.5 2.5 0  2 2.5 0  2.5 2.5 0  3 2.5 0  3.5 2.5 0  4 2.5 0  4.5 2.5 0  5 2.5 0  5.5 2.5 0  6 2.5 0  6.5 2.5 0  7 2.5 0  7.5 2.5 0  8 2.5 0  8.5 2.5 0  9 2.5 0  9.5 2.5 0  10 2.5 0  10.5 2.5 0  11 2.5 0  11.5 2.5 0  12 2.5 0  12.5 2.5 0  13 2.5 0  13.5 2.5 0  14 2.5 0  14.5 2.5 0  15 2.5 0  15.5 2.5 0  16 2.5 0  16.5 2.5 0  17 2.5 0  17.5 2.5 0  18 2.5 0  18.5 2.5 0  19 2.5 0  19.5 2.5 0  20 2.5 0  0 3 0  0.5 3 0  1 3 0  1.5 3 0  2 3 0  2.5 3 0  3 3 0  3.5 3 0  4 3 0  4.5 3 0  5 3 0  5.5 3 0  6 3 0  6.5 3 0  7 3 0  7.5 3 0  8 3 0  8.5 3 0  9 3 0  9.5 3 0  10 3 0  10.5 3 0  11 3 0  11.5 3 0  12 3 0  12.5 3 0  13 3 0  13.5 3 0  14 3 0  14.5 3 0  15 3 0  15.5 3 0  16 3 0  16.5 3 0  17 3 0  17.5 3 0  18 3 0  18.5 3 0  19 3 0  19.5 3 0  20 3 0  0 3.5 0  0.5 3.5 0  1 3.5 0  1.5 3.5 0  2 3.5 0  2.5 3.5 0  3 3.5 0  3.5 3.5 0  4 3.5 0  4.5 3.5 0  5 3.5 0  5.5 3.5 0  6 3.5 0  6.5 3.5 0  7 3.5 0  7.5 3.5 0  8 3.5 0  8.5 3.5 0  9 3.5 0  9.5 3.5 0  10 3.5 0  10.5 3.5 0  11 3.5 0  11.5 3.5 0  12 3.5 0  12.5 3.5 0  13 3.5 0  13.5 3.5 0  14 3.5 0  14.5 3.5 0  15 3.5 0  15.5 3.5 0  16 3.5 0  16.5 3.5 0  17 3.5 0  17.5 3.5 0  18 3.5 0  18.5 3.5 0  19 3.5 0  19.5 3.5 0  20 3.5 0  0 4 0  0.5 4 0  1 4 0  1.5 4 0  2 4 0  2.5 4 0  3 4 0  3.5 4 0  4 4 0  4.5 4 0  5 4 0  5.5 4 0  6 4 0  6.5 4 0  7 4 0  7.5 4 0  8 4 0  8.5 4 0  9 4 0  9.5 4 0  10 4 0  10.5 4 0  11 4 0  11.5 4 0  12 4 0  12.5 4 0  13 4 0  13.5 4 0  14 4 0  14.5 4 0  15 4 0  15.5 4 0  16 4 0  16.5 4 0  17 4 0  17.5 4 0  18 4 0  18.5 4 0  19 4 0  19.5 4 0  20 4 0  0 4.5 0  0.5 4.5 0  1 4.5 0  1.5 4.5 0  2 4.5 0  2.5 4.5 0  3 4.5 0  3.5 4.5 0  4 4.5 0  4.5 4.5 0  5 4.5 0  5.5 4.5 0  6 4.5 0  6.5 4.5 0  7 4.5 0  7.5 4.5 0  8 4.5 0  8.5 4.5 0  9 4.5 0  9.5 4.5 0  10 4.5 0  10.5 4.5 0  11 4.5 0  11.5 4.5 0  12 4.5 0  12.5 4.5 0  13 4.5 0  13.5 4.5 0  14 4.5 0  14.5 4.5 0  15 4.5 0  15.5 4.5 0  16 4.5 0  16.5 4.5 0  17 4.5 0  17.5 4.5 0  18 4.5 0  18.5 4.5 0  19 4.5 0  19.5 4.5 0  20 4.5 0  0 5 0  0.5 5 0  1 5 0  1.5 5 0  2 5 0  2.5 5 0  3 5 0  3.5 5 0  4 5 0  4.5 5 0  5 5 0  5.5 5 0  6 5 0  6.5 5 0  7 5 0  7.5 5 0  8 5 0  8.5 5 0  9 5 0  9.5 5 0  10 5 0  10.5 5 0  11 5 0  11.5 5 0  12 5 0  12.5 5 0  13 5 0  13.5 5 0  14 5 0  14.5 5 0  15 5 0  15.5 5 0  16 5 0  16.5 5 0  17 5 0  17.5 5 0  18 5 0  18.5 5 0  19 5 0  19.5 5 0  20 5 0  0 5.5 0  0.5 5.5 0  1 5.5 0  1.5 5.5 0  2 5.5 0  2.5 5.5 0  3 5.5 0  3.5 5.5 0  4 5.5 0  4.5 5.5 0  5 5.5 0  5.5 5.5 0  6 5.5 0  6.5 5.5 0  7 5.5 0  7.5 5.5 0  8 5.5 0  8.5 5.5 0  9 5.5 0  9.5 5.5 0  10 5.5 0  10.5 5.5 0  11 5.5 0  11.5 5.5 0  12 5.5 0  12.5 5.5 0  13 5.5 0  13.5 5.5 0  14 5.5 0  14.5 5.5 0  15 5.5 0  15.5 5.5 0  16 5.5 0  16.5 5.5 0  17 5.5 0  17.5 5.5 0  18 5.5 0  18.5 5.5 0  19 5.5 0  19.5 5.5 0  20 5.5 0  0 6 0  0.5 6 0  1 6 0  1.5 6 0  2 6 0  2.5 6 0  3 6 0  3.5 6 0  4 6 0  4.5 6 0  5 6 0  5.5 6 0  6 6 0  6.5 6 0  7 6 0  7.5 6 0  8 6 0  8.5 6 0  9 6 0  9.5 6 0  10 6 0  10.5 6 0  11 6 0  11.5 6 0  12 6 0  12.5 6 0  13 6 0  13.5 6 0  14 6 0  14.5 6 0  15 6 0  15.5 6 0  16 6 0  16.5 6 0  17 6 0  17.5 6 0  18 6 0  18.5 6 0  19 6 0  19.5 6 0  20 6 0  0 6.5 0  0.5 6.5 0  1 6.5 0  1.5 6.5 0  2 6.5 0  2.5 6.5 0  3 6.5 0  3.5 6.5 0  4 6.5 0  4.5 6.5 0  5 6.5 0  5.5 6.5 0  6 6.5 0  6.5 6.5 0  7 6.5 0  7.5 6.5 0  8 6.5 0  8.5 6.5 0  9 6.5 0  9.5 6.5 0  10 6.5 0  10.5 6.5 0  11 6.5 0  11.5 6.5 0  12 6.5 0  12.5 6.5 0  13 6.5 0  13.5 6.5 0  14 6.5 0  14.5 6.5 0  15 6.5 0  15.5 6.5 0  16 6.5 0  16.5 6.5 0  17 6.5 0  17.5 6.5 0  18 6.5 0  18.5 6.5 0  19 6.5 0  19.5 6.5 0  20 6.5 0  0 7 0  0.5 7 0  1 7 0  1.5 7 0  2 7 0  2.5 7 0  3 7 0  3.5 7 0  4 7 0  4.5 7 0  5 7 0  5.5 7 0  6 7 0  6.5 7 0  7 7 0  7.5 7 0  8 7 0  8.5 7 0  9 7 0  9.5 7 0  10 7 0  10.5 7 0  11 7 0  11.5 7 0  12 7 0  12.5 7 0  13 7 0  13.5 7 0  14 7 0  14.5 7 0  15 7 0  15.5 7 0  16 7 0  16.5 7 0  17 7 0  17.5 7 0  18 7 0  18.5 7 0  19 7 0  19.5 7 0  20 7 0  0 7.5 0  0.5 7.5 0  1 7.5 0  1.5 7.5 0  2 7.5 0  2.5 7.5 0  3 7.5 0  3.5 7.5 0  4 7.5 0  4.5 7.5 0  5 7.5 0  5.5 7.5 0  6 7.5 0  6.5 7.5 0  7 7.5 0  7.5 7.5 0  8 7.5 0  8.5 7.5 0  9 7.5 0  9.5 7.5 0  10 7.5 0  10.5 7.5 0  11 7.5 0  11.5 7.5 0  12 7.5 0  12.5 7.5 0  13 7.5 0  13.5 7.5 0  14 7.5 0  14.5 7.5 0  15 7.5 0  15.5 7.5 0  16 7.5 0  16.5 7.5 0  17 7.5 0  17.5 7.5 0  18 7.5 0  18.5 7.5 0  19 7.5 0  19.5 7.5 0  20 7.5 0  0 8 0  0.5 8 0  1 8 0  1.5 8 0  2 8 0  2.5 8 0  3 8 0  3.5 8 0  4 8 0  4.5 8 0  5 8 0  5.5 8 0  6 8 0  6.5 8 0  7 8 0  7.5 8 0  8 8 0  8.5 8 0  9 8 0  9.5 8 0  10 8 0  10.5 8 0  11 8 0  11.5 8 0  12 8 0  12.5 8 0  13 8 0  13.5 8 0  14 8 0  14.5 8 0  15 8 0  15.5 8 0  16 8 0  16.5 8 0  17 8 0  17.5 8 0  18 8 0  18.5 8 0  19 8 0  19.5 8 0  20 8 0  0 8.5 0  0.5 8.5 0  1 8.5 0  1.5 8.5 0  2 8.5 0  2.5 8.5 0  3 8.5 0  3.5 8.5 0  4 8.5 0  4.5 8.5 0  5 8.5 0  5.5 8.5 0  6 8.5 0  6.5 8.5 0  7 8.5 0  7.5 8.5 0  8 8.5 0  8.5 8.5 0  9 8.5 0  9.5 8.5 0  10 8.5 0  10.5 8.5 0  11 8.5 0  11.5 8.5 0  12 8.5 0  12.5 8.5 0  13 8.5 0  13.5 8.5 0  14 8.5 0  14.5 8.5 0  15 8.5 0  15.5 8.5 0  16 8.5 0  16.5 8.5 0  17 8.5 0  17.5 8.5 0  18 8.5 0  18.5 8.5 0  19 8.5 0  19.5 8.5 0  20 8.5 0  0 9 0  0.5 9 0  1 9 0  1.5 9 0  2 9 0  2.5 9 0  3 9 0  3.5 9 0  4 9 0  4.5 9 0  5 9 0  5.5 9 0  6 9 0  6.5 9 0  7 9 0  7.5 9 0  8 9 0  8.5 9 0  9 9 0  9.5 9 0  10 9 0  10.5 9 0  11 9 0  11.5 9 0  12 9 0  12.5 9 0  13 9 0  13.5 9 0  14 9 0  14.5 9 0  15 9 0  15.5 9 0  16 9 0  16.5 9 0  17 9 0  17.5 9 0  18 9 0  18.5 9 0  19 9 0  19.5 9 0  20 9 0  0 9.5 0  0.5 9.5 0  1 9.5 0  1.5 9.5 0  2 9.5 0  2.5 9.5 0  3 9.5 0  3.5 9.5 0  4 9.5 0  4.5 9.5 0  5 9.5 0  5.5 9.5 0  6 9.5 0  6.5 9.5 0  7 9.5 0  7.5 9.5 0  8 9.5 0  8.5 9.5 0  9 9.5 0  9.5 9.5 0  10 9.5 0  10.5 9.5 0  11 9.5 0  11.5 9.5 0  12 9.5 0  12.5 9.5 0  13 9.5 0  13.5 9.5 0  14 9.5 0  14.5 9.5 0  15 9.5 0  15.5 9.5 0  16 9.5 0  16.5 9.5 0  17 9.5 0  17.5 9.5 0  18 9.5 0  18.5 9.5 0  19 9.5 0  19.5 9.5 0  20 9.5 0  0 10 0  0.5 10 0  1 10 0  1.5 10 0  2 10 0  2.5 10 0  3 10 0  3.5 10 0  4 10 0  4.5 10 0  5 10 0  5.5 10 0  6 10 0  6.5 10 0  7 10 0  7.5 10 0  8 10 0  8.5 10 0  9 10 0  9.5 10 0  10 10 0  10.5 10 0  11 10 0  11.5 10 0  12 10 0  12.5 10 0  13 10 0  13.5 10 0  14 10 0  14.5 10 0  15 10 0  15.5 10 0  16 10 0  16.5 10 0  17 10 0  17.5 10 0  18 10 0  18.5 10 0  19 10 0  19.5 10 0  20 10 0  0 10.5 0  0.5 10.5 0  1 10.5 0  1.5 10.5 0  2 10.5 0  2.5 10.5 0  3 10.5 0  3.5 10.5 0  4 10.5 0  4.5 10.5 0  5 10.5 0  5.5 10.5 0  6 10.5 0  6.5 10.5 0  7 10.5 0  7.5 10.5 0  8 10.5 0  8.5 10.5 0  9 10.5 0  9.5 10.5 0  10 10.5 0  10.5 10.5 0  11 10.5 0  11.5 10.5 0  12 10.5 0  12.5 10.5 0  13 10.5 0  13.5 10.5 0  14 10.5 0  14.5 10.5 0  15 10.5 0  15.5 10.5 0  16 10.5 0  16.5 10.5 0  17 10.5 0  17.5 10.5 0  18 10.5 0  18.5 10.5 0  19 10.5 0  19.5 10.5 0  20 10.5 0  0 11 0  0.5 11 0  1 11 0  1.5 11 0  2 11 0  2.5 11 0  3 11 0  3.5 11 0  4 11 0  4.5 11 0  5 11 0  5.5 11 0  6 11 0  6.5 11 0  7 11 0  7.5 11 0  8 11 0  8.5 11 0  9 11 0  9.5 11 0  10 11 0  10.5 11 0  11 11 0  11.5 11 0  12 11 0  12.5 11 0  13 11 0  13.5 11 0  14 11 0  14.5 11 0  15 11 0  15.5 11 0  16 11 0  16.5 11 0  17 11 0  17.5 11 0  18 11 0  18.5 11 0  19 11 0  19.5 11 0  20 11 0  0 11.5 0  0.5 11.5 0  1 11.5 0  1.5 11.5 0  2 11.5 0  2.5 11.5 0  3 11.5 0  3.5 11.5 0  4 11.5 0  4.5 11.5 0  5 11.5 0  5.5 11.5 0  6 11.5 0  6.5 11.5 0  7 11.5 0  7.5 11.5 0  8 11.5 0  8.5 11.5 0  9 11.5 0  9.5 11.5 0  10 11.5 0  10.5 11.5 0  11 11.5 0  11.5 11.5 0  12 11.5 0  12.5 11.5 0  13 11.5 0  13.5 11.5 0  14 11.5 0  14.5 11.5 0  15 11.5 0  15.5 11.5 0  16 11.5 0  16.5 11.5 0  17 11.5 0  17.5 11.5 0  18 11.5 0  18.5 11.5 0  19 11.5 0  19.5 11.5 0  20 11.5 0  0 12 0  0.5 12 0  1 12 0  1.5 12 0  2 12 0  2.5 12 0  3 12 0  3.5 12 0  4 12 0  4.5 12 0  5 12 0  5.5 12 0  6 12 0  6.5 12 0  7 12 0  7.5 12 0  8 12 0  8.5 12 0  9 12 0  9.5 12 0  10 12 0  10.5 12 0  11 12 0  11.5 12 0  12 12 0  12.5 12 0  13 12 0  13.5 12 0  14 12 0  14.5 12 0  
[...]
<PointData  Vectors="f_5623-0"> 
<DataArray  type="Float64"  Name="f_5623-0"  NumberOfComponents="3" format="ascii">0.0000000000000000e+00 0.0000000000000000e+00 0.0000000000000000e+00  2.3873789560762763e-06 0.0000000000000000e+00 0.0000000000000000e+00  1.3663786988585149e-05 0.0000000000000000e+00 0.0000000000000000e+00  4.6138952460650264e-05 0.0000000000000000e+00 0.0000000000000000e+00  1.1031384452952572e-04 0.0000000000000000e+00 0.0000000000000000e+00  2.1637892014039544e-04 0.0000000000000000e+00 0.0000000000000000e+00  3.7423054846664935e-04 0.0000000000000000e+00 0.0000000000000000e+00  5.9336730020157988e-04 0.0000000000000000e+00 0.0000000000000000e+00  8.8276331991515855e-04 0.0000000000000000e+00 0.0000000000000000e+00  1.2507167868198497e-03 0.0000000000000000e+00 0.0000000000000000e+00  1.7046647322641864e-03 0.0000000000000000e+00 0.0000000000000000e+00  2.2509542861918436e-03 0.0000000000000000e+00 0.0000000000000000e+00  2.8945587644339291e-03 0.0000000000000000e+00 0.0000000000000000e+00  3.6387248537400711e-03 0.0000000000000000e+00 0.0000000000000000e+00  4.4845346875531057e-03 0.0000000000000000e+00 0.0000000000000000e+00  5.4303639741938988e-03 0.0000000000000000e+00 0.0000000000000000e+00  6.4712147111019303e-03 0.0000000000000000e+00 0.0000000000000000e+00  7.5978986434293554e-03 0.0000000000000000e+00 0.0000000000000000e+00  8.7960458667791872e-03 0.0000000000000000e+00 0.0000000000000000e+00  1.0044912341920344e-02 0.0000000000000000e+00 0.0000000000000000e+00  1.1315961270475032e-02 0.0000000000000000e+00 0.0000000000000000e+00  1.2571197160870766e-02 0.0000000000000000e+00 0.0000000000000000e+00  1.3761239082619144e-02 0.0000000000000000e+00 0.0000000000000000e+00  1.4823132323709385e-02 0.0000000000000000e+00 0.0000000000000000e+00  1.5677916763153703e-02 0.0000000000000000e+00 0.0000000000000000e+00  1.6227996953327720e-02 0.0000000000000000e+00 0.0000000000000000e+00  1.6354393921235267e-02 0.0000000000000000e+00 0.0000000000000000e+00  1.5914001825692067e-02 0.0000000000000000e+00 0.0000000000000000e+00  1.4737022015724188e-02 0.0000000000000000e+00 0.0000000000000000e+00  1.2624798541794650e-02 0.0000000000000000e+00 0.0000000000000000e+00  9.3483256462724325e-03 0.0000000000000000e+00 0.0000000000000000e+00  4.6477289903011651e-03 0.0000000000000000e+00 0.0000000000000000e+00  -1.7669741456318023e-03 0.0000000000000000e+00 0.0000000000000000e+00  -1.0213567378309727e-02 0.0000000000000000e+00 0.0000000000000000e+00  -2.1033598612442719e-02 0.0000000000000000e+00 0.0000000000000000e+00  -3.4586569088511161e-02 0.0000000000000000e+00 0.0000000000000000e+00  -5.1242475581428158e-02 0.0000000000000000e+00 0.0000000000000000e+00  -7.1373001037020822e-02 0.0000000000000000e+00 0.0000000000000000e+00  -9.5341685734494613e-02 0.0000000000000000e+00 0.0000000000000000e+00  -1.2349276974736458e-01 0.0000000000000000e+00 0.0000000000000000e+00  -1.5613546879543580e-01 0.0000000000000000e+00 0.0000000000000000e+00  0.0000000000000000e+00 2.3873789524842971e-06 0.0000000000000000e+00  -4.6499166433965246e-06 -4.6499166445365479e-06 0.0000000000000000e+00  1.7334931021898948e-06 -2.1665715182023019e-05 0.0000000000000000e+00  2.9053007934056232e-05 -4.8812692487462209e-05 0.0000000000000000e+00  8.7913550841315917e-05 -8.6363905081975525e-05 0.0000000000000000e+00  1.8860986503908291e-04 -1.3431375057335182e-04 0.0000000000000000e+00  3.4108040448764559e-04 -1.9250161382406312e-04 0.0000000000000000e+00  5.5484247879415834e-04 -2.6067835506336724e-04 0.0000000000000000e+00  8.3888218074203711e-04 -3.3852771463546396e-04 0.0000000000000000e+00  1.2015086611177059e-03 -4.2567053332334296e-04 0.0000000000000000e+00  1.6501710913898186e-03 -5.2166315322110411e-04 0.0000000000000000e+00  2.1912308002326000e-03 -6.2599382948231490e-04 0.0000000000000000e+00  2.8296777704722794e-03 -7.3807843846646125e-04 0.0000000000000000e+00  3.5687780081748192e-03 -8.5725598437929262e-04 0.0000000000000000e+00  4.4096356627747989e-03 -9.8278417872830061e-04 0.0000000000000000e+00  5.3506510866405885e-03 -1.1138353102792206e-03 0.0000000000000000e+00  6.3868533718039657e-03 -1.2494926221881411e-03 0.0000000000000000e+00  7.5090835180702436e-03 -1.3887474307940086e-03 0.0000000000000000e+00  8.7030026268188117e-03 -1.5304972467095387e-03 0.0000000000000000e+00  9.9478988862455112e-03 -1.6735451875885079e-03 0.0000000000000000e+00  1.1215268302727883e-02 -1.8166010020565729e-03 0.0000000000000000e+00  1.2467148025509014e-02 -1.9582840529603525e-03 0.0000000000000000e+00  1.3654188797653934e-02 -2.0971286327573558e-03 0.0000000000000000e+00  1.4713465804249230e-02 -2.2315920000735377e-03 0.0000000000000000e+00  1.5566046309250571e-02 -2.3600655280871397e-03 0.0000000000000000e+00  1.6114359176955081e-02 -2.4808893326539205e-03 0.0000000000000000e+00  1.6239446400832091e-02 -2.5923706899741530e-03 0.0000000000000000e+00  1.5798219884160435e-02 -2.6928064444531525e-03 0.0000000000000000e+00  1.4620896086546528e-02 -2.7805094340885529e-03 0.0000000000000000e+00  1.2508832573194772e-02 -2.8538387107755673e-03 0.0000000000000000e+00  9.2330368396485746e-03 -2.9112330065750795e-03 0.0000000000000000e+00  4.5336488157205158e-03 -2.9512465114262857e-03 0.0000000000000000e+00  -1.8792983351685610e-03 -2.9725856287936142e-03 0.0000000000000000e+00  -1.0323571821366562e-02 -2.9741450433452619e-03 0.0000000000000000e+00  -2.1140707160101465e-02 -2.9550412737559318e-03 0.0000000000000000e+00  -3.4690209158002284e-02 -2.9146419221782191e-03 0.0000000000000000e+00  -5.1342125083961632e-02 -2.8525884532174866e-03 0.0000000000000000e+00  -7.1468329528965244e-02 -2.7688056450187763e-03 0.0000000000000000e+00  -9.5433061266935307e-02 -2.6634642311821259e-03 0.0000000000000000e+00  -1.2358355133401437e-01 -2.5367478806226198e-03 0.0000000000000000e+00  -1.5624298140967538e-01 -2.3879279140402465e-03 0.0000000000000000e+00  0.0000000000000000e+00 1.3663786983346001e-05 0.0000000000000000e+00  -2.1665715181195380e-05 1.7334931023177436e-06 0.0000000000000000e+00  -3.1590524194230795e-05 -3.1590524194381987e-05 0.0000000000000000e+00  -2.0368468775479035e-05 -8.5979400185910300e-05 0.0000000000000000e+00  2.2401733430402194e-05 -1.6133474221161824e-04 0.0000000000000000e+00  1.0698127095118095e-04 -2.5744987355245475e-04 0.0000000000000000e+00  2.4332586939547815e-04 -3.7398317199843106e-04 0.0000000000000000e+00  4.4097927159062790e-04 -5.1045636085452362e-04 0.0000000000000000e+00  7.0895608071557144e-04 -6.6625900771974432e-04 0.0000000000000000e+00  1.0555968621787178e-03 -8.4065020418281396e-04 0.0000000000000000e+00  1.4883869255393049e-03 -1.0327560400439494e-03 0.0000000000000000e+00  2.0137299357090689e-03 -1.2415639843410139e-03 0.0000000000000000e+00  2.6366654197997577e-03 -1.4659154472127633e-03 0.0000000000000000e+00  3.3605167598327662e-03 -1.7044974749440718e-03 0.0000000000000000e+00  4.1864536188175056e-03 -1.9558342667787072e-03 0.0000000000000000e+00  5.1129500208568985e-03 -2.2182790634242304e-03 0.0000000000000000e+00  6.1351166279927536e-03 -2.4900069078935064e-03 0.0000000000000000e+00  7.2438833568531048e-03 -2.7690087810839886e-03 0.0000000000000000e+00  8.4250067109788856e-03 -3.0530876435249624e-03 0.0000000000000000e+00  9.6578755748495063e-03 -3.3398569573660193e-03 0.0000000000000000e+00  1.0914090408674531e-02 -3.6267423112766582e-03 0.0000000000000000e+00  1.2155794684046088e-02 -3.9109868199047803e-03 0.0000000000000000e+00  1.3333745099405441e-02 -4.1896610134030243e-03 0.0000000000000000e+00  1.4385119869798534e-02 -4.4596779649974296e-03 0.0000000000000000e+00  1.5231083526356704e-02 -4.7178144162338511e-03 0.0000000000000000e+00  1.5774153388214109e-02 -4.9607386369058329e-03 0.0000000000000000e+00  1.5895447916876308e-02 -5.1850456828479233e-03 0.0000000000000000e+00  1.5451940299845467e-02 -5.3873005648710885e-03 0.0000000000000000e+00  1.4273889981401448e-02 -5.5640895911658076e-03 0.0000000000000000e+00  1.2162676262027668e-02 -5.7120797646098617e-03 0.0000000000000000e+00  8.8893043722340602e-03 -5.8280855875397376e-03 0.0000000000000000e+00  4.1938853581238514e-03 -5.9091419482108784e-03 0.0000000000000000e+00  -2.2136058494034781e-03 -5.9525809628250617e-03 0.0000000000000000e+00  -1.0651027451795150e-02 -5.9561097743933023e-03 0.0000000000000000e+00  -2.1460044017542909e-02 -5.9178853780778255e-03 0.0000000000000000e+00  -3.5000337123874382e-02 -5.8365813556810840e-03 0.0000000000000000e+00  -5.1642197422962791e-02 -5.7114392582068713e-03 0.0000000000000000e+00  -7.1757845607639800e-02 -5.5422934149953473e-03 0.0000000000000000e+00  -9.5712023120866060e-02 -5.3295572487123263e-03 0.0000000000000000e+00  -1.2385254866009979e-01 -5.0742101739495024e-03 0.0000000000000000e+00  -1.5650150709112218e-01 -4.7782171693878652e-03 0.0000000000000000e+00  0.0000000000000000e+00 4.6138952458584195e-05 0.0000000000000000e+00  -4.8812692489761957e-05 2.9053007932955133e-05 0.0000000000000000e+00  -8.5979400186895054e-05 -2.0368468775699799e-05 0.0000000000000000e+00  -1.0175117502492884e-04 -1.0175117502467819e-04 0.0000000000000000e+00  -8.5894498153376325e-05 -2.1477988518769391e-04 0.0000000000000000e+00  -2.8196906425255548e-05 -3.5904369718393696e-04 0.0000000000000000e+00  8.1292153389723727e-05 -5.3397529547560493e-04 0.0000000000000000e+00  2.5213414652688388e-04 -7.3883806017486207e-04 0.0000000000000000e+00  4.9337629441191641e-04 -9.7271825549808874e-04 0.0000000000000000e+00  8.1340379674467770e-04 -1.2345165502409036e-03 0.0000000000000000e+00  1.2197581691003225e-03 -1.5229382852892308e-03 0.0000000000000000e+00  1.7189113616232574e-03 -1.8364824095733628e-03 0.0000000000000000e+00  2.3159840038756464e-03 -2.1734293093192639e-03 0.0000000000000000e+00  3.0143940350003465e-03 -2.5318279797742521e-03 0.0000000000000000e+00  3.8154195111468189e-03 -2.9094831087911337e-03 0.0000000000000000e+00  4.7176567276378751e-03 -3.3039427031771470e-03 0.0000000000000000e+00  5.7163521416891761e-03 -3.7124869336855985e-03 0.0000000000000000e+00  6.8025841900543251e-03 -4.1321189229283316e-03 0.0000000000000000e+00  7.9622693307928316e-03 -4.5595582585921998e-03 0.0000000000000000e+00  9.1749660108861250e-03 -4.9912380811079661e-03 0.0000000000000000e+00  1.0412451458867109e-02 -5.4233066670584494e-03 0.0000000000000000e+00  1.1637050110983548e-02 -5.8516345030231584e-03 0.0000000000000000e+00  1.2799700190790807e-02 -6.2718279139538646e-03 0.0000000000000000e+00  1.3837757735115312e-02 -6.6792503682192332e-03 0.0000000000000000e+00  1.4672556522845333e-02 -7.0690526177093708e-03 0.0000000000000000e+00  1.5206769117724173e-02 -7.4362128299207990e-03 0.0000000000000000e+00  1.5321649316181980e-02 -7.7755878066039655e-03 0.0000000000000000e+00  1.4874279463416833e-02 -8.0819762276427530e-03 0.0000000000000000e+00  1.3694995509616125e-02 -8.3501945684827522e-03 0.0000000000000000e+00  1.1585214117146499e-02 -8.5751658655288492e-03 0.0000000000000000e+00  8.3159324417126299e-03 -8.7520207996427974e-03 0.0000000000000000e+00  3.6272021547852267e-03 -8.8762096001636856e-03 0.0000000000000000e+00  -2.7711176988813513e-03 -8.9436220378470155e-03 0.0000000000000000e+00  -1.1197062074020849e-02 -8.9507113140584616e-03 0.0000000000000000e+00  -2.1992536403420127e-02 -8.8946160505104285e-03 0.0000000000000000e+00  -3.5517528731816836e-02 -8.7732730243245457e-03 0.0000000000000000e+00  -5.2142699488291713e-02 -8.5855124566442363e-03 0.0000000000000000e+00  -7.2240690670119220e-02 -8.3311303435891788e-03 0.0000000000000000e+00  -9.6176682238984609e-02 -8.0109478680159378e-03 0.0000000000000000e+00  -1.2429887048348000e-01 -7.6269179341501916e-03 0.0000000000000000e+00  -1.5692965061825312e-01 -7.1824309940072663e-03 0.0000000000000000e+00  0.0000000000000000e+00 1.1031384452978104e-04 0.0000000000000000e+00  -8.6363905082348938e-05 8.7913550839805582e-05 0.0000000000000000e+00  -1.6133474221204547e-04 2.2401733431174786e-05 0.0000000000000000e+00  -2.1477988519106166e-04 -8.5894498151373234e-05 0.0000000000000000e+00  -2.3651920892349407e-04 -2.3651920892102417e-04 0.0000000000000000e+00  -2.1637560409466783e-04 -4.2888460663309395e-04 0.0000000000000000e+00  -1.4439988834957673e-04 -6.6221381209249875e-04 0.0000000000000000e+00  -1.1009545380332432e-05 -9.3551939833083706e-04 0.0000000000000000e+00  1.9288168224186337e-04 -1.2475892829723664e-03 0.0000000000000000e+00  4.7571514213924209e-04 -1.5969726948295458e-03 0.0000000000000000e+00  8.4510588620887340e-04 -1.9819647419247292e-03 0.0000000000000000e+00  1.3076174788020829e-03 -2.4005896307729832e-03 0.0000000000000000e+00  1.8684810272358607e-03 -2.8505829203463013e-03 0.0000000000000000e+00  2.5312444889151334e-03 -3.3293733027940295e-03 0.0000000000000000e+00  3.2973358939875313e-03 -3.8340644983671499e-03 0.0000000000000000e+00  4.1655215000639288e-03 -4.3614179535402175e-03 0.0000000000000000e+00  5.1312372638680978e-03 -4.9078371346714484e-03 0.0000000000000000e+00  6.1857696348064095e-03 -5.4693543124076935e-03 0.0000000000000000e+00  7.3152599174960038e-03 -6.0416208360637991e-03 0.0000000000000000e+00  8.4995058282305233e-03 -6.6199020037542187e-03 0.0000000000000000e+00  9.7105350741616015e-03 -7.1990777425376381e-03 0.0000000000000000e+00  1.0910929702122421e-02 -7.7736504225423128e-03 0.0000000000000000e+00  1.2051887688596392e-02 -8.3377612353285439e-03 0.0000000000000000e+00  1.3071021033611465e-02 -8.8852166636970084e-03 0.0000000000000000e+00  1.3889908810494485e-02 -9.4095266461276788e-03 0.0000000000000000e+00  1.4411450412167241e-02 -9.9039560753832172e-03 0.0000000000000000e+00  1.4517099359501295e-02 -1.0361591238597158e-02 0.0000000000000000e+00  1.4064101267570586e-02 -1.0775422662127516e-02 0.0000000000000000e+00  1.2882909048116967e-02 -1.1138445510136246e-02 0.0000000000000000e+00  1.0774999955580766e-02 -1.1443778128205894e-02 0.0000000000000000e+00  7.5113655016822026e-03 -1.1684798443914816e-02 0.0000000000000000e+00  2.8319763259853415e-03 -1.1855296669866814e-02 0.0000000000000000e+00  -3.5534727330522385e-03 -1.1949641079729238e-02 0.0000000000000000e+00  -1.1963269622059781e-02 -1.1962951610400301e-02 0.0000000000000000e+00  -2.2739663947960773e-02 -1.1891273902738813e-02 0.0000000000000000e+00  -3.6243076926167114e-02 -1.1731744626038321e-02 0.0000000000000000e+00  -5.2844682824723328e-02 -1.1482738556392655e-02 0.0000000000000000e+00  -7.2917703304802961e-02 -1.1143990644379743e-02 0.0000000000000000e+00  -9.6827947912405274e-02 -1.0716693265007160e-02 0.0000000000000000e+00  -1.2492429528654683e-01 -1.0203570570284178e-02 0.0000000000000000e+00  -1.5752994646185495e-01 -9.6088707610126091e-03 0.0000000000000000e+00  0.0000000000000000e+00 2.1637892014122060e-04 0.0000000000000000e+00  -1.3431375057406750e-04 1.8860986503740630e-04 0.0000000000000000e+00  -2.5744987355312435e-04 1.0698127095347729e-04 0.0000000000000000e+00  -3.5904369718765225e-04 -2.8196906423655628e-05 0.0000000000000000e+00  -4.2888460663441038e-04 -2.1637560409530247e-04 0.0000000000000000e+00  -4.5681317896542736e-04 -4.5681317896420856e-04 0.0000000000000000e+00  -4.3287655750363387e-04 -7.4854072857164205e-04 0.0000000000000000e+00  -3.4746617808937950e-04 -1.0903365303381604e-03 0.0000000000000000e+00  -1.9144891213952313e-04 -1.4807066965479103e-03 0.0000000000000000e+00  4.3684434029255086e-05 -1.9178661369008486e-03 0.0000000000000000e+00  3.6563882018633015e-04 -2.3997180707497562e-03 0.0000000000000000e+00  7.8109112548289462e-04 -2.9238319421231247e-03 0.0000000000000000e+00  1.2954104462617869e-03 -3.4874201249677963e-03 0.0000000000000000e+00  1.9123084161123667e-03 -4.0873140128625182e-03 0.0000000000000000e+00  2.6334030620964789e-03 -4.7199402097704343e-03 0.0000000000000000e+00  3.4576771018859100e-03 -5.3812976497262660e-03 0.0000000000000000e+00  4.3808089571074280e-03 -6.0669365931622287e-03 0.0000000000000000e+00  5.3943523783836003e-03 -6.7719405771974042e-03 0.0000000000000000e+00  6.4847388197276498e-03 -7.4909125352923519e-03 0.0000000000000000e+00  7.6320760796978393e-03 -8.2179664466403568e-03 0.0000000000000000e+00  8.8087179340700737e-03 -8.9467260260704517e-03 0.0000000000000000e+00  9.9775834103371982e-03 -9.6703321197178730e-03 0.0000000000000000e+00  1.1090212090698458e-02 -1.0381460626492103e-02 0.0000000000000000e+00  1.2084554640136391e-02 -1.1072352914217628e-02 0.0000000000000000e+00  1.2882516973320568e-02 -1.1734860829486599e-02 0.0000000000000000e+00  1.3387303303584078e-02 -1.2360508489908129e-02 0.0000000000000000e+00  1.3480638500660256e-02 -1.2940573060690330e-02 0.0000000000000000e+00  1.3019993496226212e-02 -1.3466186599074578e-02 0.0000000000000000e+00  1.1835987070197812e-02 -1.3928460723171108e-02 0.0000000000000000e+00  9.7301890251603861e-03 -1.4318635226411020e-02 0.0000000000000000e+00  6.4735963523263182e-03 -1.4628250705346360e-02 0.0000000000000000e+00  1.8060852582323713e-03 -1.4849343698488136e-02 0.0000000000000000e+00  -4.5628547116584907e-03 -1.4974660707635009e-02 0.0000000000000000e+00  -1.2951835529894330e-02 -1.4997884869134498e-02 0.0000000000000000e+00  -2.3703553076984282e-02 -1.4913866230745280e-02 0.0000000000000000e+00  -3.7178995079698858e-02 -1.4718844074779584e-02 0.0000000000000000e+00  -5.3750014517057403e-02 -1.4410648140430551e-02 0.0000000000000000e+00  -7.3790610931380632e-02 -1.3988865033643104e-02 0.0000000000000000e+00  -9.7667454820893465e-02 -1.3454953926193322e-02 0.0000000000000000e+00  -1.2573034125773080e-01 -1.2812281559986968e-02 0.0000000000000000e+00  -1.5830333645639022e-01 -1.2065998732617402e-02 0.0000000000000000e+00  0.0000000000000000e+00 3.7423054846227351e-04 0.0000000000000000e+00  -1.9250161382309544e-04 3.4108040448963629e-04 0.0000000000000000e+00  -3.7398317199876271e-04 2.4332586939663112e-04 0.0000000000000000e+00  -5.3397529547562206e-04 8.1292153393634146e-05 0.0000000000000000e+00  -6.6221381209296464e-04 -1.4439988834812333e-04 0.0000000000000000e+00  -7.4854072857227295e-04 -4.3287655750172822e-04 0.0000000000000000e+00  -7.8299548613833161e-04 -7.8299548613885918e-04 0.0000000000000000e+00  -7.5594030747144021e-04 -1.1933199934368055e-03 0.0000000000000000e+00  -6.5818934318494910e-04 -1.6620955291424086e-03 0.0000000000000000e+00  -4.8115576223641985e-04 -2.1872257693185209e-03 0.0000000000000000e+00  -2.1703024732711243e-04 -2.7662470029134563e-03 0.0000000000000000e+00  1.4099709087734801e-04 -3.3963006186786353e-03 0.0000000000000000e+00  5.9845880272908997e-04 -4.0741040646642716e-03 0.0000000000000000e+00  1.1592618812859398e-03 -4.7959209246123836e-03 0.0000000000000000e+00  1.8252526082607580e-03 -5.5575309272548976e-03 0.0000000000000000e+00  2.5956752422897807e-03 -6.3542008508700142e-03 0.0000000000000000e+00  3.4665026993748295e-03 -7.1806574333639177e-03 0.0000000000000000e+00  4.4296149912555344e-03 -8.0310635566070866e-03 0.0000000000000000e+00  5.4717994244937850e-03 -8.8989991448633603e-03 0.0000000000000000e+00  6.5735459388913172e-03 -9.7774484007943988e-03 0.0000000000000000e+00  7.7076121700608525e-03 -1.0658795198163058e-02 0.0000000000000000e+00  8.8373367494796566e-03 -1.1534828656376476e-02 0.0000000000000000e+00  9.9146871001828847e-03 -1.2396761134911642e-02 0.0000000000000000e+00  1.0878040813306587e-02 -1.3235261098753977e-02 0.0000000000000000e+00  1.1649718936911980e-02 -1.4040503504744171e-02 0.0000000000000000e+00  1.2133316384955769e-02 -1.4802240517478705e-02 0.0000000000000000e+00  1.2210909929702260e-02 -1.5509895438636881e-02 0.0000000000000000e+00  1.1740267659600175e-02 -1.6152682657334657e-02 0.0000000000000000e+00  1.0552233529018672e-02 -1.6719756104306704e-02 0.0000000000000000e+00  8.4485125010562365e-03 -1.7200387992387461e-02 0.0000000000000000e+00  5.2001286302475989e-03 -1.7584178404782394e-02 0.0000000000000000e+00  5.4685997771956613e-04 -1.7861294415937656e-02 0.0000000000000000e+00  -5.8020421098687863e-03 -1.8022734824157609e-02 0.0000000000000000e+00  -1.4165578939987270e-02 -1.806061329848892