<?xml version="1.0"?>
<VTKFile type="UnstructuredGrid"  version="0.1"  >
<UnstructuredGrid>
<Piece  NumberOfPoints="1681" NumberOfCells="3200">
<Points>
<DataArray  type="Float64"  NumberOfComponents="3"  format="ascii">0 0 0  0.5 0 0  1 0 0  1.5 0 0  2 0 0  2.5 0 0  3 0 0  3.5 0 0  4 0 0  4.5 0 0  5 0 0  5.5 0 0  6 0 0  6.5 0 0  7 0 0  7.5 0 0  8 0 0  8.5 0 0  9 0 0  9.5 0 0  10 0 0  10.5 0 0  11 0 0  11.5 0 0  12 0 0  12.5 0 0  13 0 0  13.5 0 0  14 0 0  14.5 0 0  15 0 0  15.5 0 0  16 0 0  16.5 0 0  17 0 0  17.5 0 0  18 0 0  18.5 0 0  19 0 0  19.5 0 0  20 0 0  0 0.5 0  0.5 0.5 0  1 0.5 0  1.5 0.5 0  2 0.5 0  2.5 0.5 0  3 0.5 0  3.5 0.5 0  4 0.5 0  4.5 0.5 0  5 0.5 0  5.5 0.5 0  6 0.5 0  6.5 0.5 0  7 0.5 0  7.5 0.5 0  8 0.5 0  8.5 0.5 0  9 0.5 0  9.5 0.5 0  10 0.5 0  10.5 0.5 0  11 0.5 0  11.5 0.5 0  12 0.5 0  12.5 0.5 0  13 0.5 0  13.5 0.5 0  14 0.5 0  14.5 0.5 0  15 0.5 0  15.5 0.5 0  16 0.5 0  16.5 0.5 0  17 0.5 0  17.5 0.5 0  18 0.5 0  18.5 0.5 0  19 0.5 0  19.5 0.5 0  20 0.5 0  0 1 0  0.5 1 0  1 1 0  1.5 1 0  2 1 0  2.5 1 0  3 1 0  3.5 1 0  4 1 0  4.5 1 0  5 1 0  5.5 1 0  6 1 0  6.5 1 0  7 1 0  7.5 1 0  8 1 0  8.5 1 0  9 1 0  9.5 1 0  10 1 0  10.5 1 0  11 1 0  11.5 1 0  12 1 0  12.5 1 0  13 1 0  13.5 1 0  14 1 0  14.5 1 0  15 1 0  15.5 1 0  16 1 0  16.5 1 0  17 1 0  17.5 1 0  18 1 0  18.5 1 0  19 1 0  19.5 1 0  20 1 0  0 1.5 0  0.5 1.5 0  1 1.5 0  1.5 1.5 0  2 1.5 0  2.5 1.5 0  3 1.5 0  3.5 1.5 0  4 1.5 0  4.5 1.5 0  5 1.5 0  5.5 1.5 0  6 1.5 0  6.5 1.5 0  7 1.5 0  7.5 1.5 0  8 1.5 0  8.5 1.5 0  9 1.5 0  9.5 1.5 0  10 1.5 0  10.5 1.5 0  11 1.5 0  11.5 1.5 0  12 1.5 0  12.5 1.5 0  13 1.5 0  13.5 1.5 0  14 1.5 0  14.5 1.5 0  15 1.5 0  15.5 1.5 0  16 1.5 0  16.5 1.5 0  17 1.5 0  17.5 1.5 0  18 1.5 0  18.5 1.5 0  19 1.5 0  19.5 1.5 0  20 1.5 0  0 2 0  0.5 2 0  1 2 0  1.5 2 0  2 2 0  2.5 2 0  3 2 0  3.5 2 0  4 2 0  4.5 2 0  5 2 0  5.5 2 0  6 2 0  6.5 2 0  7 2 0  7.5 2 0  8 2 0  8.5 2 0  9 2 0  9.5 2 0  10 2 0  10.5 2 0  11 2 0  11.5 2 0  12 2 0  12.5 2 0  13 2 0  13.5 2 0  14 2 0  14.5 2 0  15 2 0  15.5 2 0  16 2 0  16.5 2 0  17 2 0  17.5 2 0  18 2 0  18.5 2 0  19 2 0  19.5 2 0  20 2 0  0 2.5 0  0.5 2.5 0  1 2.5 0  1.5 2.5 0  2 2.5 0  2.5 2.5 0  3 2.5 0  3.5 2.5 0  4 2.5 0  4.5 2.5 0  5 2.5 0  5.5 2.5 0  6 2.5 0  6.5 2.5 0  7 2.5 0  7.5 2.5 0  8 2.5 0  8.5 2.5 0  9 2.5 0  9.5 2.5 0  10 2.5 0  10.5 2.5 0  11 2.5 0  11.5 2.5 0  12 2.5 0  12.5 2.5 0  13 2.5 0  13.5 2.5 0  14 2.5 0  14.5 2.5 0  15 2.5 0  15.5 2.5 0  16 2.5 0  16.5 2.5 0  17 2.5 0  17.5 2.5 0  18 2.5 0  18.5 2.5 0  19 2.5 0  19.5 2.5 0  20 2.5 0  0 3 0  0.5 3 0  1 3 0  1.5 3 0  2 3 0  2.5 3 0  3 3 0  3.5 3 0  4 3 0  4.5 3 0  5 3 0  5.5 3 0  6 3 0  6.5 3 0  7 3 0  7.5 3 0  8 3 0  8.5 3 0  9 3 0  9.5 3 0  10 3 0  10.5 3 0  11 3 0  11.5 3 0  12 3 0  12.5 3 0  13 3 0  13.5 3 0  14 3 0  14.5 3 0  15 3 0  15.5 3 0  16 3 0  16.5 3 0  17 3 0  17.5 3 0  18 3 0  18.5 3 0  19 3 0  19.5 3 0  20 3 0  0 3.5 0  0.5 3.5 0  1 3.5 0  1.5 3.5 0  2 3.5 0  2.5 3.5 0  3 3.5 0  3.5 3.5 0  4 3.5 0  4.5 3.5 0  5 3.5 0  5.5 3.5 0  6 3.5 0  6.5 3.5 0  7 3.5 0  7.5 3.5 0  8 3.5 0  8.5 3.5 0  9 3.5 0  9.5 3.5 0  10 3.5 0  10.5 3.5 0  11 3.5 0  11.5 3.5 0  12 3.5 0  12.5 3.5 0  13 3.5 0  13.5 3.5 0  14 3.5 0  14.5 3.5 0  15 3.5 0  15.5 3.5 0  16 3.5 0  16.5 3.5 0  17 3.5 0  17.5 3.5 0  18 3.5 0  18.5 3.5 0  19 3.5 0  19.5 3.5 0  20 3.5 0  0 4 0  0.5 4 0  1 4 0  1.5 4 0  2 4 0  2.5 4 0  3 4 0  3.5 4 0  4 4 0  4.5 4 0  5 4 0  5.5 4 0  6 4 0  6.5 4 0  7 4 0  7.5 4 0  8 4 0  8.5 4 0  9 4 0  9.5 4 0  10 4 0  10.5 4 0  11 4 0  11.5 4 0  12 4 0  12.5 4 0  13 4 0  13.5 4 0  14 4 0  14.5 4 0  15 4 0  15.5 4 0  16 4 0  16.5 4 0  17 4 0  17.5 4 0  18 4 0  18.5 4 0  19 4 0  19.5 4 0  20 4 0  0 4.5 0  0.5 4.5 0  1 4.5 0  1.5 4.5 0  2 4.5 0  2.5 4.5 0  3 4.5 0  3.5 4.5 0  4 4.5 0  4.5 4.5 0  5 4.5 0  5.5 4.5 0  6 4.5 0  6.5 4.5 0  7 4.5 0  7.5 4.5 0  8 4.5 0  8.5 4.5 0  9 4.5 0  9.5 4.5 0  10 4.5 0  10.5 4.5 0  11 4.5 0  11.5 4.5 0  12 4.5 0  12.5 4.5 0  13 4.5 0  13.5 4.5 0  14 4.5 0  14.5 4.5 0  15 4.5 0  15.5 4.5 0  16 4.5 0  16.5 4.5 0  17 4.5 0  17.5 4.5 0  18 4.5 0  18.5 4.5 0  19 4.5 0  19.5 4.5 0  20 4.5 0  0 5 0  0.5 5 0  1 5 0  1.5 5 0  2 5 0  2.5 5 0  3 5 0  3.5 5 0  4 5 0  4.5 5 0  5 5 0  5.5 5 0  6 5 0  6.5 5 0  7 5 0  7.5 5 0  8 5 0  8.5 5 0  9 5 0  9.5 5 0  10 5 0  10.5 5 0  11 5 0  11.5 5 0  12 5 0  12.5 5 0  13 5 0  13.5 5 0  14 5 0  14.5 5 0  15 5 0  15.5 5 0  16 5 0  16.5 5 0  17 5 0  17.5 5 0  18 5 0  18.5 5 0  19 5 0  19.5 5 0  20 5 0  0 5.5 0  0.5 5.5 0  1 5.5 0  1.5 5.5 0  2 5.5 0  2.5 5.5 0  3 5.5 0  3.5 5.5 0  4 5.5 0  4.5 5.5 0  5 5.5 0  5.5 5.5 0  6 5.5 0  6.5 5.5 0  7 5.5 0  7.5 5.5 0  8 5.5 0  8.5 5.5 0  9 5.5 0  9.5 5.5 0  10 5.5 0  10.5 5.5 0  11 5.5 0  11.5 5.5 0  12 5.5 0  12.5 5.5 0  13 5.5 0  13.5 5.5 0  14 5.5 0  14.5 5.5 0  15 5.5 0  15.5 5.5 0  16 5.5 0  16.5 5.5 0  17 5.5 0  17.5 5.5 0  18 5.5 0  18.5 5.5 0  19 5.5 0  19.5 5.5 0  20 5.5 0  0 6 0  0.5 6 0  1 6 0  1.5 6 0  2 6 0  2.5 6 0  3 6 0  3.5 6 0  4 6 0  4.5 6 0  5 6 0  5.5 6 0  6 6 0  6.5 6 0  7 6 0  7.5 6 0  8 6 0  8.5 6 0  9 6 0  9.5 6 0  10 6 0  10.5 6 0  11 6 0  11.5 6 0  12 6 0  12.5 6 0  13 6 0  13.5 6 0  14 6 0  14.5 6 0  15 6 0  15.5 6 0  16 6 0  16.5 6 0  17 6 0  17.5 6 0  18 6 0  18.5 6 0  19 6 0  19.5 6 0  20 6 0  0 6.5 0  0.5 6.5 0  1 6.5 0  1.5 6.5 0  2 6.5 0  2.5 6.5 0  3 6.5 0  3.5 6.5 0  4 6.5 0  4.5 6.5 0  5 6.5 0  5.5 6.5 0  6 6.5 0  6.5 6.5 0  7 6.5 0  7.5 6.5 0  8 6.5 0  8.5 6.5 0  9 6.5 0  9.5 6.5 0  10 6.5 0  10.5 6.5 0  11 6.5 0  11.5 6.5 0  12 6.5 0  12.5 6.5 0  13 6.5 0  13.5 6.5 0  14 6.5 0  14.5 6.5 0  15 6.5 0  15.5 6.5 0  16 6.5 0  16.5 6.5 0  17 6.5 0  17.5 6.5 0  18 6.5 0  18.5 6.5 0  19 6.5 0  19.5 6.5 0  20 6.5 0  0 7 0  0.5 7 0  1 7 0  1.5 7 0  2 7 0  2.5 7 0  3 7 0  3.5 7 0  4 7 0  4.5 7 0  5 7 0  5.5 7 0  6 7 0  6.5 7 0  7 7 0  7.5 7 0  8 7 0  8.5 7 0  9 7 0  9.5 7 0  10 7 0  10.5 7 0  11 7 0  11.5 7 0  12 7 0  12.5 7 0  13 7 0  13.5 7 0  14 7 0  14.5 7 0  15 7 0  15.5 7 0  16 7 0  16.5 7 0  17 7 0  17.5 7 0  18 7 0  18.5 7 0  19 7 0  19.5 7 0  20 7 0  0 7.5 0  0.5 7.5 0  1 7.5 0  1.5 7.5 0  2 7.5 0  2.5 7.5 0  3 7.5 0  3.5 7.5 0  4 7.5 0  4.5 7.5 0  5 7.5 0  5.5 7.5 0  6 7.5 0  6.5 7.5 0  7 7.5 0  7.5 7.5 0  8 7.5 0  8.5 7.5 0  9 7.5 0  9.5 7.5 0  10 7.5 0  10.5 7.5 0  11 7.5 0  11.5 7.5 0  12 7.5 0  12.5 7.5 0  13 7.5 0  13.5 7.5 0  14 7.5 0  14.5 7.5 0  15 7.5 0  15.5 7.5 0  16 7.5 0  16.5 7.5 0  17 7.5 0  17.5 7.5 0  18 7.5 0  18.5 7.5 0  19 7.5 0  19.5 7.5 0  20 7.5 0  0 8 0  0.5 8 0  1 8 0  1.5 8 0  2 8 0  2.5 8 0  3 8 0  3.5 8 0  4 8 0  4.5 8 0  5 8 0  5.5 8 0  6 8 0  6.5 8 0  7 8 0  7.5 8 0  8 8 0  8.5 8 0  9 8 0  9.5 8 0  10 8 0  10.5 8 0  11 8 0  11.5 8 0  12 8 0  12.5 8 0  13 8 0  13.5 8 0  14 8 0  14.5 8 0  15 8 0  15.5 8 0  16 8 0  16.5 8 0  17 8 0  17.5 8 0  18 8 0  18.5 8 0  19 8 0  19.5 8 0  20 8 0  0 8.5 0  0.5 8.5 0  1 8.5 0  1.5 8.5 0  2 8.5 0  2.5 8.5 0  3 8.5 0  3.5 8.5 0  4 8.5 0  4.5 8.5 0  5 8.5 0  5.5 8.5 0  6 8.5 0  6.5 8.5 0  7 8.5 0  7.5 8.5 0  8 8.5 0  8.5 8.5 0  9 8.5 0  9.5 8.5 0  10 8.5 0  10.5 8.5 0  11 8.5 0  11.5 8.5 0  12 8.5 0  12.5 8.5 0  13 8.5 0  13.5 8.5 0  14 8.5 0  14.5 8.5 0  15 8.5 0  15.5 8.5 0  16 8.5 0  16.5 8.5 0  17 8.5 0  17.5 8.5 0  18 8.5 0  18.5 8.5 0  19 8.5 0  19.5 8.5 0  20 8.5 0  0 9 0  0.5 9 0  1 9 0  1.5 9 0  2 9 0  2.5 9 0  3 9 0  3.5 9 0  4 9 0  4.5 9 0  5 9 0  5.5 9 0  6 9 0  6.5 9 0  7 9 0  7.5 9 0  8 9 0  8.5 9 0  9 9 0  9.5 9 0  10 9 0  10.5 9 0  11 9 0  11.5 9 0  12 9 0  12.5 9 0  13 9 0  13.5 9 0  14 9 0  14.5 9 0  15 9 0  15.5 9 0  16 9 0  16.5 9 0  17 9 0  17.5 9 0  18 9 0  18.5 9 0  19 9 0  19.5 9 0  20 9 0  0 9.5 0  0.5 9.5 0  1 9.5 0  1.5 9.5 0  2 9.5 0  2.5 9.5 0  3 9.5 0  3.5 9.5 0  4 9.5 0  4.5 9.5 0  5 9.5 0  5.5 9.5 0  6 9.5 0  6.5 9.5 0  7 9.5 0  7.5 9.5 0  8 9.5 0  8.5 9.5 0  9 9.5 0  9.5 9.5 0  10 9.5 0  10.5 9.5 0  11 9.5 0  11.5 9.5 0  12 9.5 0  12.5 9.5 0  13 9.5 0  13.5 9.5 0  14 9.5 0  14.5 9.5 0  15 9.5 0  15.5 9.5 0  16 9.5 0  16.5 9.5 0  17 9.5 0  17.5 9.5 0  18 9.5 0  18.5 9.5 0  19 9.5 0  19.5 9.5 0  20 9.5 0  0 10 0  0.5 10 0  1 10 0  1.5 10 0  2 10 0  2.5 10 0  3 10 0  3.5 10 0  4 10 0  4.5 10 0  5 10 0  5.5 10 0  6 10 0  6.5 10 0  7 10 0  7.5 10 0  8 10 0  8.5 10 0  9 10 0  9.5 10 0  10 10 0  10.5 10 0  11 10 0  11.5 10 0  12 10 0  12.5 10 0  13 10 0  13.5 10 0  14 10 0  14.5 10 0  15 10 0  15.5 10 0  16 10 0  16.5 10 0  17 10 0  17.5 10 0  18 10 0  18.5 10 0  19 10 0  19.5 10 0  20 10 0  0 10.5 0  0.5 10.5 0  1 10.5 0  1.5 10.5 0  2 10.5 0  2.5 10.5 0  3 10.5 0  3.5 10.5 0  4 10.5 0  4.5 10.5 0  5 10.5 0  5.5 10.5 0  6 10.5 0  6.5 10.5 0  7 10.5 0  7.5 10.5 0  8 10.5 0  8.5 10.5 0  9 10.5 0  9.5 10.5 0  10 10.5 0  10.5 10.5 0  11 10.5 0  11.5 10.5 0  12 10.5 0  12.5 10.5 0  13 10.5 0  13.5 10.5 0  14 10.5 0  14.5 10.5 0  15 10.5 0  15.5 10.5 0  16 10.5 0  16.5 10.5 0  17 10.5 0  17.5 10.5 0  18 10.5 0  18.5 10.5 0  19 10.5 0  19.5 10.5 0  20 10.5 0  0 11 0  0.5 11 0  1 11 0  1.5 11 0  2 11 0  2.5 11 0  3 11 0  3.5 11 0  4 11 0  4.5 11 0  5 11 0  5.5 11 0  6 11 0  6.5 11 0  7 11 0  7.5 11 0  8 11 0  8.5 11 0  9 11 0  9.5 11 0  10 11 0  10.5 11 0  11 11 0  11.5 11 0  12 11 0  12.5 11 0  13 11 0  13.5 11 0  14 11 0  14.5 11 0  15 11 0  15.5 11 0  16 11 0  16.5 11 0  17 11 0  17.5 11 0  18 11 0  18.5 11 0  19 11 0  19.5 11 0  20 11 0  0 11.5 0  0.5 11.5 0  1 11.5 0  1.5 11.5 0  2 11.5 0  2.5 11.5 0  3 11.5 0  3.5 11.5 0  4 11.5 0  4.5 11.5 0  5 11.5 0  5.5 11.5 0  6 11.5 0  6.5 11.5 0  7 11.5 0  7.5 11.5 0  8 11.5 0  8.5 11.5 0  9 11.5 0  9.5 11.5 0  10 11.5 0  10.5 11.5 0  11 11.5 0  11.5 11.5 0  12 11.5 0  12.5 11.5 0  13 11.5 0  13.5 11.5 0  14 11.5 0  14.5 11.5 0  15 11.5 0  15.5 11.5 0  16 11.5 0  16.5 11.5 0  17 11.5 0  17.5 11.5 0  18 11.5 0  18.5 11.5 0  19 11.5 0  19.5 11.5 0  20 11.5 0  0 12 0  0.5 12 0  1 12 0  1.5 12 0  2 12 0  2.5 12 0  3 12 0  3.5 12 0  4 12 0  4.5 12 0  5 12 0  5.5 12 0  6 12 0  6.5 12 0  7 12 0  7.5 12 0  8 12 0  8.5 12 0  9 12 0  9.5 12 0  10 12 0  10.5 12 0  11 12 0  11.5 12 0  12 12 0  12.5 12 0  13 12 0  13.5 12 0  14 12 0  14.5 12 0  
[...]
<PointData  Vectors="f_5623-0"> 
<DataArray  type="Float64"  Name="f_5623-0"  NumberOfComponents="3" format="ascii">0.0000000000000000e+00 0.0000000000000000e+00 0.0000000000000000e+00  2.4600000562182592e-06 0.0000000000000000e+00 0.0000000000000000e+00  1.2046573050965568e-05 0.0000000000000000e+00 0.0000000000000000e+00  3.8508817160279592e-05 0.0000000000000000e+00 0.0000000000000000e+00  9.0222175274214540e-05 0.0000000000000000e+00 0.0000000000000000e+00  1.7535408262205253e-04 0.0000000000000000e+00 0.0000000000000000e+00  3.0188811713169128e-04 0.0000000000000000e+00 0.0000000000000000e+00  4.7755976747362590e-04 0.0000000000000000e+00 0.0000000000000000e+00  7.0977892323598809e-04 0.0000000000000000e+00 0.0000000000000000e+00  1.0055381849041528e-03 0.0000000000000000e+00 0.0000000000000000e+00  1.3713010253581311e-03 0.0000000000000000e+00 0.0000000000000000e+00  1.8128628162461830e-03 0.0000000000000000e+00 0.0000000000000000e+00  2.3351761766342237e-03 0.0000000000000000e+00 0.0000000000000000e+00  2.9421299483230164e-03 0.0000000000000000e+00 0.0000000000000000e+00  3.6362684278111769e-03 0.0000000000000000e+00 0.0000000000000000e+00  4.4184343166462853e-03 0.0000000000000000e+00 0.0000000000000000e+00  5.2873152311163473e-03 0.0000000000000000e+00 0.0000000000000000e+00  6.2388696407680057e-03 0.0000000000000000e+00 0.0000000000000000e+00  7.2656039837905913e-03 0.0000000000000000e+00 0.0000000000000000e+00  8.3556687762780281e-03 0.0000000000000000e+00 0.0000000000000000e+00  9.4917383234900069e-03 0.0000000000000000e+00 0.0000000000000000e+00  1.0649636929438964e-02 0.0000000000000000e+00 0.0000000000000000e+00  1.1796675364380237e-02 0.0000000000000000e+00 0.0000000000000000e+00  1.2889666209136674e-02 0.0000000000000000e+00 0.0000000000000000e+00  1.3872597330065357e-02 0.0000000000000000e+00 0.0000000000000000e+00  1.4673961222741736e-02 0.0000000000000000e+00 0.0000000000000000e+00  1.5203766485561319e-02 0.0000000000000000e+00 0.0000000000000000e+00  1.5350298170202496e-02 0.0000000000000000e+00 0.0000000000000000e+00  1.4976747219278164e-02 0.0000000000000000e+00 0.0000000000000000e+00  1.3917894786243857e-02 0.0000000000000000e+00 0.0000000000000000e+00  1.1977110982896106e-02 0.0000000000000000e+00 0.0000000000000000e+00  8.9240011780077899e-03 0.0000000000000000e+00 0.0000000000000000e+00  4.4930928151424663e-03 0.0000000000000000e+00 0.0000000000000000e+00  -1.6160165736748468e-03 0.0000000000000000e+00 0.0000000000000000e+00  -9.7366545866740366e-03 0.0000000000000000e+00 0.0000000000000000e+00  -2.0230912106886524e-02 0.0000000000000000e+00 0.0000000000000000e+00  -3.3483194256808284e-02 0.0000000000000000e+00 0.0000000000000000e+00  -4.9891574214788952e-02 0.0000000000000000e+00 0.0000000000000000e+00  -6.9857198387236599e-02 0.0000000000000000e+00 0.0000000000000000e+00  -9.3771580362227144e-02 0.0000000000000000e+00 0.0000000000000000e+00  -1.2199884891829098e-01 0.0000000000000000e+00 0.0000000000000000e+00  0.0000000000000000e+00 2.4600000530033960e-06 0.0000000000000000e+00  -3.0519810157727948e-06 -3.0519810185457375e-06 0.0000000000000000e+00  2.6752887546360325e-06 -1.6422642338654038e-05 0.0000000000000000e+00  2.5073993535967387e-05 -3.7775091131872329e-05 0.0000000000000000e+00  7.2602213940665131e-05 -6.7319110853234060e-05 0.0000000000000000e+00  1.5350815371193078e-04 -1.0504657364733293e-04 0.0000000000000000e+00  2.7580777894481770e-04 -1.5082847840634193e-04 0.0000000000000000e+00  4.4725102801831945e-04 -2.0446646066315480e-04 0.0000000000000000e+00  6.7525716230047142e-04 -2.6570914204423812e-04 0.0000000000000000e+00  9.6682757379984170e-04 -3.3425514914463825e-04 0.0000000000000000e+00  1.3284356013518750e-03 -4.0975163639358532e-04 0.0000000000000000e+00  1.7658882418661757e-03 -4.9179128224573329e-04 0.0000000000000000e+00  2.2841518121120173e-03 -5.7990875836872325e-04 0.0000000000000000e+00  2.8871310601104551e-03 -6.7357706920140672e-04 0.0000000000000000e+00  3.5773884197540747e-03 -7.7220398720607801e-04 0.0000000000000000e+00  4.3557868878672532e-03 -8.7512876870941446e-04 0.0000000000000000e+00  5.2210363639958821e-03 -9.8161933721627485e-04 0.0000000000000000e+00  6.1691193147950189e-03 -1.0908701369422931e-03 0.0000000000000000e+00  7.1925675014420532e-03 -1.2020008806081703e-03 0.0000000000000000e+00  8.2795575798027092e-03 -1.3140564375420617e-03 0.0000000000000000e+00  9.4127901799036743e-03 -1.4260081298474365e-03 0.0000000000000000e+00  1.0568115370591744e-02 -1.5367567230499830e-03 0.0000000000000000e+00  1.1712868295053384e-02 -1.6451374118423090e-03 0.0000000000000000e+00  1.2803883646300990e-02 -1.7499271070987458e-03 0.0000000000000000e+00  1.3785168317331047e-02 -1.8498543231798841e-03 0.0000000000000000e+00  1.4585230081319782e-02 -1.9436119358635072e-03 0.0000000000000000e+00  1.5114088716318846e-02 -2.0298730214758916e-03 0.0000000000000000e+00  1.5260036499802362e-02 -2.1073098817061108e-03 0.0000000000000000e+00  1.4886268458247384e-02 -2.1746161911039485e-03 0.0000000000000000e+00  1.3827568285276806e-02 -2.2305319603290034e-03 0.0000000000000000e+00  1.1887309455048577e-02 -2.2738706834147348e-03 0.0000000000000000e+00  8.8351043924317883e-03 -2.3035476464355162e-03 0.0000000000000000e+00  4.4054940400549292e-03 -2.3186079663034031e-03 0.0000000000000000e+00  -1.7019026466296992e-03 -2.3182525912230478e-03 0.0000000000000000e+00  -9.8203856746912673e-03 -2.3018603453456316e-03 0.0000000000000000e+00  -2.0312021032208100e-02 -2.2690041811055418e-03 0.0000000000000000e+00  -3.3561217892180535e-02 -2.2194595915660583e-03 0.0000000000000000e+00  -4.9966163655693840e-02 -2.1531994355837936e-03 0.0000000000000000e+00  -6.9928542979025163e-02 -2.0703483246395336e-03 0.0000000000000000e+00  -9.3842377841859073e-02 -1.9709804423073615e-03 0.0000000000000000e+00  -1.2208419635374813e-01 -1.8543857204972806e-03 0.0000000000000000e+00  0.0000000000000000e+00 1.2046573044584770e-05 0.0000000000000000e+00  -1.6422642338919548e-05 2.6752887537571278e-06 0.0000000000000000e+00  -2.3526497888408499e-05 -2.3526497887258987e-05 0.0000000000000000e+00  -1.3797223188173650e-05 -6.6308452008047666e-05 0.0000000000000000e+00  2.1067003472368464e-05 -1.2559216692855889e-04 0.0000000000000000e+00  8.9289215542210347e-05 -2.0121204750021672e-04 0.0000000000000000e+00  1.9889931959077441e-04 -2.9289554606614607e-04 0.0000000000000000e+00  3.5766831985821994e-04 -4.0026204064764928e-04 0.0000000000000000e+00  5.7303835573237856e-04 -5.2282618468105636e-04 0.0000000000000000e+00  8.5203624387375292e-04 -6.5999890052597298e-04 0.0000000000000000e+00  1.2011647534776906e-03 -8.1108504002183992e-04 0.0000000000000000e+00  1.6262654836662544e-03 -9.7527862869130821e-04 0.0000000000000000e+00  2.1323453117230592e-03 -1.1516567164883188e-03 0.0000000000000000e+00  2.7233559723140554e-03 -1.3391726032282261e-03 0.0000000000000000e+00  3.4019135117966093e-03 -1.5366490040388755e-03 0.0000000000000000e+00  4.1689411176211678e-03 -1.7427716163147624e-03 0.0000000000000000e+00  5.0232151621067258e-03 -1.9560835156673274e-03 0.0000000000000000e+00  5.9607903088848523e-03 -2.1749808128528596e-03 0.0000000000000000e+00  6.9742754019746969e-03 -2.3977100270982273e-03 0.0000000000000000e+00  8.0519279292328837e-03 -2.6223676625152475e-03 0.0000000000000000e+00  9.1765316546837915e-03 -2.8469025058533211e-03 0.0000000000000000e+00  1.0324020324399894e-02 -3.0691211909806572e-03 0.0000000000000000e+00  1.1461811246795989e-02 -3.2866975931459853e-03 0.0000000000000000e+00  1.2546817453957942e-02 -3.4971866190640429e-03 0.0000000000000000e+00  1.3523117843795698e-02 -3.6980429402337892e-03 0.0000000000000000e+00  1.4319283255141136e-02 -3.8866451666747753e-03 0.0000000000000000e+00  1.4845385018692455e-02 -4.0603258644376205e-03 0.0000000000000000e+00  1.4989753063295677e-02 -4.2164076643545507e-03 0.0000000000000000e+00  1.4615604125241471e-02 -4.3522454729751549e-03 0.0000000000000000e+00  1.3557726114332523e-02 -4.4652744570322783e-03 0.0000000000000000e+00  1.1619478232149705e-02 -4.5530630160363541e-03 0.0000000000000000e+00  8.5704396330326775e-03 -4.6133693835453994e-03 0.0000000000000000e+00  4.1450986641391125e-03 -4.6441998318168332e-03 0.0000000000000000e+00  -1.9569984566674627e-03 -4.6438657450373596e-03 0.0000000000000000e+00  -1.0069247202083220e-02 -4.6110360966786518e-03 0.0000000000000000e+00  -2.0553838467096224e-02 -4.5447809738058762e-03 0.0000000000000000e+00  -3.3795350912065862e-02 -4.4446001913416343e-03 0.0000000000000000e+00  -5.0192216486068773e-02 -4.3104281164600793e-03 0.0000000000000000e+00  -7.0146486955666984e-02 -4.1426059868547348e-03 0.0000000000000000e+00  -9.4052626488977789e-02 -3.9418557072018762e-03 0.0000000000000000e+00  -1.2228623413991049e-01 -3.7096011711437601e-03 0.0000000000000000e+00  0.0000000000000000e+00 3.8508817156634836e-05 0.0000000000000000e+00  -3.7775091132359637e-05 2.5073993534233724e-05 0.0000000000000000e+00  -6.6308452007229297e-05 -1.3797223189727881e-05 0.0000000000000000e+00  -7.7818210469593027e-05 -7.7818210469414825e-05 0.0000000000000000e+00  -6.4131370050303212e-05 -1.6674158690795942e-04 0.0000000000000000e+00  -1.7061785091978226e-05 -2.8024161693797236e-04 0.0000000000000000e+00  7.1417313001271763e-05 -4.1786789786600940e-04 0.0000000000000000e+00  2.0909174625662478e-04 -5.7903546747432541e-04 0.0000000000000000e+00  4.0343036233999284e-04 -7.6301850697344474e-04 0.0000000000000000e+00  6.6149644279171532e-04 -9.6894334785206009e-04 0.0000000000000000e+00  9.8983870348379253e-04 -1.1957804121222586e-03 0.0000000000000000e+00  1.3943546067978637e-03 -1.4423350822212570e-03 0.0000000000000000e+00  1.8801173936591931e-03 -1.7072377243779935e-03 0.0000000000000000e+00  2.4511561357178080e-03 -1.9889332621915974e-03 0.0000000000000000e+00  3.1101754267035355e-03 -2.2856707930344090e-03 0.0000000000000000e+00  3.8581981426791113e-03 -2.5954937920708251e-03 0.0000000000000000e+00  4.6941110605624682e-03 -2.9162314882651267e-03 0.0000000000000000e+00  5.6140891401169060e-03 -3.2454920374391689e-03 0.0000000000000000e+00  6.6108701496929746e-03 -3.5806581626266982e-03 0.0000000000000000e+00  7.6728473929035413e-03 -3.9188859789795688e-03 0.0000000000000000e+00  8.7829451043328725e-03 -4.2571077648815995e-03 0.0000000000000000e+00  9.9172394058340638e-03 -4.5920394782749865e-03 0.0000000000000000e+00  1.1043288629684631e-02 -4.9201938419731672e-03 0.0000000000000000e+00  1.2118141745074676e-02 -5.2378998285163439e-03 0.0000000000000000e+00  1.3086004347277747e-02 -5.5413293562432712e-03 0.0000000000000000e+00  1.3875560255412501e-02 -5.8265319548496718e-03 0.0000000000000000e+00  1.4396975391467080e-02 -6.0894780570314600e-03 0.0000000000000000e+00  1.4538651182991301e-02 -6.3261114039944348e-03 0.0000000000000000e+00  1.4163848224643897e-02 -6.5324107923577556e-03 0.0000000000000000e+00  1.3107366446999115e-02 -6.7044610061496989e-03 0.0000000000000000e+00  1.1172541564204648e-02 -6.8385322366196159e-03 0.0000000000000000e+00  8.1288907167366784e-03 -6.9311665661771832e-03 0.0000000000000000e+00  3.7107993924926277e-03 -6.9792691682693695e-03 0.0000000000000000e+00  -2.3823315486198480e-03 -6.9802007682124986e-03 0.0000000000000000e+00  -1.0484086451850810e-02 -6.9318666713275232e-03 0.0000000000000000e+00  -2.0956888681970907e-02 -6.8327964289374354e-03 0.0000000000000000e+00  -3.4185590639666905e-02 -6.6822075089276196e-03 0.0000000000000000e+00  -5.0568930097061836e-02 -6.4800483244492118e-03 0.0000000000000000e+00  -7.0509270501520158e-02 -6.2270276607522823e-03 0.0000000000000000e+00  -9.4401333205047580e-02 -5.9246735644194522e-03 0.0000000000000000e+00  -1.2262090435994775e-01 -5.5755189224748819e-03 0.0000000000000000e+00  0.0000000000000000e+00 9.0222175271773838e-05 0.0000000000000000e+00  -6.7319110855163289e-05 7.2602213938676189e-05 0.0000000000000000e+00  -1.2559216692972463e-04 2.1067003473365543e-05 0.0000000000000000e+00  -1.6674158691204420e-04 -6.4131370047847684e-05 0.0000000000000000e+00  -1.8263521779052100e-04 -1.8263521778825385e-04 0.0000000000000000e+00  -1.6511359473544567e-04 -3.3397984684535386e-04 0.0000000000000000e+00  -1.0615004545521224e-04 -5.1754973019864435e-04 0.0000000000000000e+00  2.0589318555253505e-06 -7.3256181937123108e-04 0.0000000000000000e+00  1.6701433894489767e-04 -9.7805422167644251e-04 0.0000000000000000e+00  3.9582551260190974e-04 -1.2528747420268132e-03 0.0000000000000000e+00  6.9510141370055336e-04 -1.5556682339383226e-03 0.0000000000000000e+00  1.0708145188799225e-03 -1.8848628622195340e-03 0.0000000000000000e+00  1.5281284726735437e-03 -2.2386556326430165e-03 0.0000000000000000e+00  2.0711786346352258e-03 -2.6149976304158562e-03 0.0000000000000000e+00  2.7027920138610394e-03 -3.0115794892816403e-03 0.0000000000000000e+00  3.4241299187424599e-03 -3.4258176986758141e-03 0.0000000000000000e+00  4.2342330252658090e-03 -3.8548424430048765e-03 0.0000000000000000e+00  5.1294445937393783e-03 -4.2954877504105182e-03 0.0000000000000000e+00  6.1026834473902327e-03 -4.7442848084501728e-03 0.0000000000000000e+00  7.1425344121107785e-03 -5.1974593790396796e-03 0.0000000000000000e+00  8.2321207392981148e-03 -5.6509343123373962e-03 0.0000000000000000e+00  9.3477213729344505e-03 -6.1003382164713646e-03 0.0000000000000000e+00  1.0457096857961512e-02 -6.5410213818482572e-03 0.0000000000000000e+00  1.1517492644039510e-02 -6.9680800813422365e-03 0.0000000000000000e+00  1.2473299294681750e-02 -7.3763903634591873e-03 0.0000000000000000e+00  1.3253367736637387e-02 -7.7606524159480883e-03 0.0000000000000000e+00  1.3768006353591392e-02 -8.1154464875131584e-03 0.0000000000000000e+00  1.3905727342598293e-02 -8.4353011935402594e-03 0.0000000000000000e+00  1.3529863288436089e-02 -8.7147747649226545e-03 0.0000000000000000e+00  1.2475240464149233e-02 -8.9485493810573212e-03 0.0000000000000000e+00  1.0545168923151420e-02 -9.1315381016311946e-03 0.0000000000000000e+00  7.5090826232030389e-03 -9.2590030169310868e-03 0.0000000000000000e+00  3.1012220282794719e-03 -9.3266820314959215e-03 0.0000000000000000e+00  -2.9792215420456438e-03 -9.3309201923910557e-03 0.0000000000000000e+00  -1.1066106894719097e-02 -9.2687997956653646e-03 0.0000000000000000e+00  -2.1522193963085776e-02 -9.1382619969410644e-03 0.0000000000000000e+00  -3.4732726557776976e-02 -8.9382120640586569e-03 0.0000000000000000e+00  -5.1096876465693157e-02 -8.6686019788630945e-03 0.0000000000000000e+00  -7.1017469918053411e-02 -8.3304881408445206e-03 0.0000000000000000e+00  -9.4889715153886264e-02 -7.9260594195447003e-03 0.0000000000000000e+00  -1.2308992496036038e-01 -7.4585734191947852e-03 0.0000000000000000e+00  0.0000000000000000e+00 1.7535408262425205e-04 0.0000000000000000e+00  -1.0504657364913589e-04 1.5350815370984060e-04 0.0000000000000000e+00  -2.0121204750168147e-04 8.9289215542610634e-05 0.0000000000000000e+00  -2.8024161694123912e-04 -1.7061785090677458e-05 0.0000000000000000e+00  -3.3397984684525742e-04 -1.6511359473601330e-04 0.0000000000000000e+00  -3.5428059469739284e-04 -3.5428059469885283e-04 0.0000000000000000e+00  -3.3311343319127350e-04 -5.8379609637785376e-04 0.0000000000000000e+00  -2.6265316750251631e-04 -8.5269229100069126e-04 0.0000000000000000e+00  -1.3536024076988006e-04 -1.1597846982878001e-03 0.0000000000000000e+00  5.5930331833602786e-05 -1.5036566478045874e-03 0.0000000000000000e+00  3.1790118072858481e-04 -1.8826425160725156e-03 0.0000000000000000e+00  6.5661756873883952e-04 -2.2948096759280497e-03 0.0000000000000000e+00  1.0773560377526279e-03 -2.7379395256116948e-03 0.0000000000000000e+00  1.5843857043481113e-03 -3.2095081300889858e-03 0.0000000000000000e+00  2.1806885900993106e-03 -3.7066671097922615e-03 0.0000000000000000e+00  2.8676022174231558e-03 -4.2262255077047005e-03 0.0000000000000000e+00  3.6443640799969121e-03 -4.7646334667169506e-03 0.0000000000000000e+00  4.5075336254854596e-03 -5.3179686545425835e-03 0.0000000000000000e+00  5.4502632760912205e-03 -5.8819264794850792e-03 0.0000000000000000e+00  6.4613861056036608e-03 -6.4518152432040017e-03 0.0000000000000000e+00  7.5242846255005828e-03 -7.0225574723028249e-03 0.0000000000000000e+00  8.6155034881625434e-03 -7.5886987556374194e-03 0.0000000000000000e+00  9.7030698731425773e-03 -8.1444254843213541e-03 0.0000000000000000e+00  1.0744490307824039e-02 -8.6835929424400986e-03 0.0000000000000000e+00  1.1684403465197111e-02 -9.1997652214942712e-03 0.0000000000000000e+00  1.2451887148977632e-02 -9.6862684211084012e-03 0.0000000000000000e+00  1.2957446396084418e-02 -1.0136258535933607e-02 0.0000000000000000e+00  1.3089750299469453e-02 -1.0542805286376512e-02 0.0000000000000000e+00  1.2712238758247037e-02 -1.0898992885332630e-02 0.0000000000000000e+00  1.1659785992026413e-02 -1.1198038280550287e-02 0.0000000000000000e+00  9.7356812998405460e-03 -1.1433426689966764e-02 0.0000000000000000e+00  6.7092608161492210e-03 -1.1599063163640006e-02 0.0000000000000000e+00  2.3145833312965794e-03 -1.1689437391231555e-02 0.0000000000000000e+00  -3.7494298117177775e-03 -1.1699797029049781e-02 0.0000000000000000e+00  -1.1816996966889093e-02 -1.1626322584495693e-02 0.0000000000000000e+00  -2.2251324391711090e-02 -1.1466294698961784e-02 0.0000000000000000e+00  -3.5438181569430793e-02 -1.1218242958452716e-02 0.0000000000000000e+00  -5.1777333446715632e-02 -1.0882064163598283e-02 0.0000000000000000e+00  -7.1672250360009918e-02 -1.0459095169160021e-02 0.0000000000000000e+00  -9.5518802172663203e-02 -9.9521130831435756e-03 0.0000000000000000e+00  -1.2369385902217224e-01 -9.3651993821505311e-03 0.0000000000000000e+00  0.0000000000000000e+00 3.0188811712791928e-04 0.0000000000000000e+00  -1.5082847840553959e-04 2.7580777894473286e-04 0.0000000000000000e+00  -2.9289554606660463e-04 1.9889931959064428e-04 0.0000000000000000e+00  -4.1786789786564044e-04 7.1417313003798279e-05 0.0000000000000000e+00  -5.1754973019772061e-04 -1.0615004545502378e-04 0.0000000000000000e+00  -5.8379609637716203e-04 -3.3311343319174117e-04 0.0000000000000000e+00  -6.0856991081875407e-04 -6.0856991081886466e-04 0.0000000000000000e+00  -5.8402184435078525e-04 -9.3138258956396896e-04 0.0000000000000000e+00  -5.0256906966993705e-04 -1.3001616251464799e-03 0.0000000000000000e+00  -3.5698298308467740e-04 -1.7132447264644282e-03 0.0000000000000000e+00  -1.4049548982785810e-04 -2.1686762037621504e-03 0.0000000000000000e+00  1.5306754508628140e-04 -2.6641844829696048e-03 0.0000000000000000e+00  5.2911635113924132e-04 -3.1971584498174592e-03 0.0000000000000000e+00  9.9207964430152455e-04 -3.7646232053208570e-03 0.0000000000000000e+00  1.5451256202111407e-03 -4.3632159573900146e-03 0.0000000000000000e+00  2.1898046693551395e-03 -4.9891628984322124e-03 0.0000000000000000e+00  2.9255933149562184e-03 -5.6382580435942516e-03 0.0000000000000000e+00  3.7493149024082394e-03 -6.3058451335003445e-03 0.0000000000000000e+00  4.6544084573761297e-03 -6.9868038376317970e-03 0.0000000000000000e+00  5.6300132269096097e-03 -7.6755416263691971e-03 0.0000000000000000e+00  6.6598332603754863e-03 -8.3659928080938983e-03 0.0000000000000000e+00  7.7207447567955298e-03 -9.0516263477969632e-03 0.0000000000000000e+00  8.7811098836191454e-03 -9.7254641920742138e-03 0.0000000000000000e+00  9.7987657855904478e-03 -1.0380111917094511e-02 0.0000000000000000e+00  1.0718668330412823e-02 -1.1007803584495136e-02 0.0000000000000000e+00  1.1470188852243060e-02 -1.1600462723710223e-02 0.0000000000000000e+00  1.1964090933167377e-02 -1.2149781338101493e-02 0.0000000000000000e+00  1.2089255010626911e-02 -1.2647318721766956e-02 0.0000000000000000e+00  1.1709272297069166e-02 -1.3084621617964873e-02 0.0000000000000000e+00  1.0659095244981416e-02 -1.3453366765229466e-02 0.0000000000000000e+00  8.7420055753724291e-03 -1.3745526052505288e-02 0.0000000000000000e+00  5.7272343201889347e-03 -1.3953553214603502e-02 0.0000000000000000e+00  1.3486278107457199e-03 -1.4070589137330424e-02 0.0000000000000000e+00  -4.6952193641702387e-03 -1.4090680377913271e-02 0.