<?xml version="1.0"?>
<VTKFile type="UnstructuredGrid"  version="0.1"  >
<UnstructuredGrid>
<Piece  NumberOfPoints="1681" NumberOfCells="3200">
<Points>
<DataArray  type="Float64"  NumberOfComponents="3"  format="ascii">0 0 0  0.5 0 0  1 0 0  1.5 0 0  2 0 0  2.5 0 0  3 0 0  3.5 0 0  4 0 0  4.5 0 0  5 0 0  5.5 0 0  6 0 0  6.5 0 0  7 0 0  7.5 0 0  8 0 0  8.5 0 0  9 0 0  9.5 0 0  10 0 0  10.5 0 0  11 0 0  11.5 0 0  12 0 0  12.5 0 0  13 0 0  13.5 0 0  14 0 0  14.5 0 0  15 0 0  15.5 0 0  16 0 0  16.5 0 0  17 0 0  17.5 0 0  18 0 0  18.5 0 0  19 0 0  19.5 0 0  20 0 0  0 0.5 0  0.5 0.5 0  1 0.5 0  1.5 0.5 0  2 0.5 0  2.5 0.5 0  3 0.5 0  3.5 0.5 0  4 0.5 0  4.5 0.5 0  5 0.5 0  5.5 0.5 0  6 0.5 0  6.5 0.5 0  7 0.5 0  7.5 0.5 0  8 0.5 0  8.5 0.5 0  9 0.5 0  9.5 0.5 0  10 0.5 0  10.5 0.5 0  11 0.5 0  11.5 0.5 0  12 0.5 0  12.5 0.5 0  13 0.5 0  13.5 0.5 0  14 0.5 0  14.5 0.5 0  15 0.5 0  15.5 0.5 0  16 0.5 0  16.5 0.5 0  17 0.5 0  17.5 0.5 0  18 0.5 0  18.5 0.5 0  19 0.5 0  19.5 0.5 0  20 0.5 0  0 1 0  0.5 1 0  1 1 0  1.5 1 0  2 1 0  2.5 1 0  3 1 0  3.5 1 0  4 1 0  4.5 1 0  5 1 0  5.5 1 0  6 1 0  6.5 1 0  7 1 0  7.5 1 0  8 1 0  8.5 1 0  9 1 0  9.5 1 0  10 1 0  10.5 1 0  11 1 0  11.5 1 0  12 1 0  12.5 1 0  13 1 0  13.5 1 0  14 1 0  14.5 1 0  15 1 0  15.5 1 0  16 1 0  16.5 1 0  17 1 0  17.5 1 0  18 1 0  18.5 1 0  19 1 0  19.5 1 0  20 1 0  0 1.5 0  0.5 1.5 0  1 1.5 0  1.5 1.5 0  2 1.5 0  2.5 1.5 0  3 1.5 0  3.5 1.5 0  4 1.5 0  4.5 1.5 0  5 1.5 0  5.5 1.5 0  6 1.5 0  6.5 1.5 0  7 1.5 0  7.5 1.5 0  8 1.5 0  8.5 1.5 0  9 1.5 0  9.5 1.5 0  10 1.5 0  10.5 1.5 0  11 1.5 0  11.5 1.5 0  12 1.5 0  12.5 1.5 0  13 1.5 0  13.5 1.5 0  14 1.5 0  14.5 1.5 0  15 1.5 0  15.5 1.5 0  16 1.5 0  16.5 1.5 0  17 1.5 0  17.5 1.5 0  18 1.5 0  18.5 1.5 0  19 1.5 0  19.5 1.5 0  20 1.5 0  0 2 0  0.5 2 0  1 2 0  1.5 2 0  2 2 0  2.5 2 0  3 2 0  3.5 2 0  4 2 0  4.5 2 0  5 2 0  5.5 2 0  6 2 0  6.5 2 0  7 2 0  7.5 2 0  8 2 0  8.5 2 0  9 2 0  9.5 2 0  10 2 0  10.5 2 0  11 2 0  11.5 2 0  12 2 0  12.5 2 0  13 2 0  13.5 2 0  14 2 0  14.5 2 0  15 2 0  15.5 2 0  16 2 0  16.5 2 0  17 2 0  17.5 2 0  18 2 0  18.5 2 0  19 2 0  19.5 2 0  20 2 0  0 2.5 0  0.5 2.5 0  1 2.5 0  1.5 2.5 0  2 2.5 0  2.5 2.5 0  3 2.5 0  3.5 2.5 0  4 2.5 0  4.5 2.5 0  5 2.5 0  5.5 2.5 0  6 2.5 0  6.5 2.5 0  7 2.5 0  7.5 2.5 0  8 2.5 0  8.5 2.5 0  9 2.5 0  9.5 2.5 0  10 2.5 0  10.5 2.5 0  11 2.5 0  11.5 2.5 0  12 2.5 0  12.5 2.5 0  13 2.5 0  13.5 2.5 0  14 2.5 0  14.5 2.5 0  15 2.5 0  15.5 2.5 0  16 2.5 0  16.5 2.5 0  17 2.5 0  17.5 2.5 0  18 2.5 0  18.5 2.5 0  19 2.5 0  19.5 2.5 0  20 2.5 0  0 3 0  0.5 3 0  1 3 0  1.5 3 0  2 3 0  2.5 3 0  3 3 0  3.5 3 0  4 3 0  4.5 3 0  5 3 0  5.5 3 0  6 3 0  6.5 3 0  7 3 0  7.5 3 0  8 3 0  8.5 3 0  9 3 0  9.5 3 0  10 3 0  10.5 3 0  11 3 0  11.5 3 0  12 3 0  12.5 3 0  13 3 0  13.5 3 0  14 3 0  14.5 3 0  15 3 0  15.5 3 0  16 3 0  16.5 3 0  17 3 0  17.5 3 0  18 3 0  18.5 3 0  19 3 0  19.5 3 0  20 3 0  0 3.5 0  0.5 3.5 0  1 3.5 0  1.5 3.5 0  2 3.5 0  2.5 3.5 0  3 3.5 0  3.5 3.5 0  4 3.5 0  4.5 3.5 0  5 3.5 0  5.5 3.5 0  6 3.5 0  6.5 3.5 0  7 3.5 0  7.5 3.5 0  8 3.5 0  8.5 3.5 0  9 3.5 0  9.5 3.5 0  10 3.5 0  10.5 3.5 0  11 3.5 0  11.5 3.5 0  12 3.5 0  12.5 3.5 0  13 3.5 0  13.5 3.5 0  14 3.5 0  14.5 3.5 0  15 3.5 0  15.5 3.5 0  16 3.5 0  16.5 3.5 0  17 3.5 0  17.5 3.5 0  18 3.5 0  18.5 3.5 0  19 3.5 0  19.5 3.5 0  20 3.5 0  0 4 0  0.5 4 0  1 4 0  1.5 4 0  2 4 0  2.5 4 0  3 4 0  3.5 4 0  4 4 0  4.5 4 0  5 4 0  5.5 4 0  6 4 0  6.5 4 0  7 4 0  7.5 4 0  8 4 0  8.5 4 0  9 4 0  9.5 4 0  10 4 0  10.5 4 0  11 4 0  11.5 4 0  12 4 0  12.5 4 0  13 4 0  13.5 4 0  14 4 0  14.5 4 0  15 4 0  15.5 4 0  16 4 0  16.5 4 0  17 4 0  17.5 4 0  18 4 0  18.5 4 0  19 4 0  19.5 4 0  20 4 0  0 4.5 0  0.5 4.5 0  1 4.5 0  1.5 4.5 0  2 4.5 0  2.5 4.5 0  3 4.5 0  3.5 4.5 0  4 4.5 0  4.5 4.5 0  5 4.5 0  5.5 4.5 0  6 4.5 0  6.5 4.5 0  7 4.5 0  7.5 4.5 0  8 4.5 0  8.5 4.5 0  9 4.5 0  9.5 4.5 0  10 4.5 0  10.5 4.5 0  11 4.5 0  11.5 4.5 0  12 4.5 0  12.5 4.5 0  13 4.5 0  13.5 4.5 0  14 4.5 0  14.5 4.5 0  15 4.5 0  15.5 4.5 0  16 4.5 0  16.5 4.5 0  17 4.5 0  17.5 4.5 0  18 4.5 0  18.5 4.5 0  19 4.5 0  19.5 4.5 0  20 4.5 0  0 5 0  0.5 5 0  1 5 0  1.5 5 0  2 5 0  2.5 5 0  3 5 0  3.5 5 0  4 5 0  4.5 5 0  5 5 0  5.5 5 0  6 5 0  6.5 5 0  7 5 0  7.5 5 0  8 5 0  8.5 5 0  9 5 0  9.5 5 0  10 5 0  10.5 5 0  11 5 0  11.5 5 0  12 5 0  12.5 5 0  13 5 0  13.5 5 0  14 5 0  14.5 5 0  15 5 0  15.5 5 0  16 5 0  16.5 5 0  17 5 0  17.5 5 0  18 5 0  18.5 5 0  19 5 0  19.5 5 0  20 5 0  0 5.5 0  0.5 5.5 0  1 5.5 0  1.5 5.5 0  2 5.5 0  2.5 5.5 0  3 5.5 0  3.5 5.5 0  4 5.5 0  4.5 5.5 0  5 5.5 0  5.5 5.5 0  6 5.5 0  6.5 5.5 0  7 5.5 0  7.5 5.5 0  8 5.5 0  8.5 5.5 0  9 5.5 0  9.5 5.5 0  10 5.5 0  10.5 5.5 0  11 5.5 0  11.5 5.5 0  12 5.5 0  12.5 5.5 0  13 5.5 0  13.5 5.5 0  14 5.5 0  14.5 5.5 0  15 5.5 0  15.5 5.5 0  16 5.5 0  16.5 5.5 0  17 5.5 0  17.5 5.5 0  18 5.5 0  18.5 5.5 0  19 5.5 0  19.5 5.5 0  20 5.5 0  0 6 0  0.5 6 0  1 6 0  1.5 6 0  2 6 0  2.5 6 0  3 6 0  3.5 6 0  4 6 0  4.5 6 0  5 6 0  5.5 6 0  6 6 0  6.5 6 0  7 6 0  7.5 6 0  8 6 0  8.5 6 0  9 6 0  9.5 6 0  10 6 0  10.5 6 0  11 6 0  11.5 6 0  12 6 0  12.5 6 0  13 6 0  13.5 6 0  14 6 0  14.5 6 0  15 6 0  15.5 6 0  16 6 0  16.5 6 0  17 6 0  17.5 6 0  18 6 0  18.5 6 0  19 6 0  19.5 6 0  20 6 0  0 6.5 0  0.5 6.5 0  1 6.5 0  1.5 6.5 0  2 6.5 0  2.5 6.5 0  3 6.5 0  3.5 6.5 0  4 6.5 0  4.5 6.5 0  5 6.5 0  5.5 6.5 0  6 6.5 0  6.5 6.5 0  7 6.5 0  7.5 6.5 0  8 6.5 0  8.5 6.5 0  9 6.5 0  9.5 6.5 0  10 6.5 0  10.5 6.5 0  11 6.5 0  11.5 6.5 0  12 6.5 0  12.5 6.5 0  13 6.5 0  13.5 6.5 0  14 6.5 0  14.5 6.5 0  15 6.5 0  15.5 6.5 0  16 6.5 0  16.5 6.5 0  17 6.5 0  17.5 6.5 0  18 6.5 0  18.5 6.5 0  19 6.5 0  19.5 6.5 0  20 6.5 0  0 7 0  0.5 7 0  1 7 0  1.5 7 0  2 7 0  2.5 7 0  3 7 0  3.5 7 0  4 7 0  4.5 7 0  5 7 0  5.5 7 0  6 7 0  6.5 7 0  7 7 0  7.5 7 0  8 7 0  8.5 7 0  9 7 0  9.5 7 0  10 7 0  10.5 7 0  11 7 0  11.5 7 0  12 7 0  12.5 7 0  13 7 0  13.5 7 0  14 7 0  14.5 7 0  15 7 0  15.5 7 0  16 7 0  16.5 7 0  17 7 0  17.5 7 0  18 7 0  18.5 7 0  19 7 0  19.5 7 0  20 7 0  0 7.5 0  0.5 7.5 0  1 7.5 0  1.5 7.5 0  2 7.5 0  2.5 7.5 0  3 7.5 0  3.5 7.5 0  4 7.5 0  4.5 7.5 0  5 7.5 0  5.5 7.5 0  6 7.5 0  6.5 7.5 0  7 7.5 0  7.5 7.5 0  8 7.5 0  8.5 7.5 0  9 7.5 0  9.5 7.5 0  10 7.5 0  10.5 7.5 0  11 7.5 0  11.5 7.5 0  12 7.5 0  12.5 7.5 0  13 7.5 0  13.5 7.5 0  14 7.5 0  14.5 7.5 0  15 7.5 0  15.5 7.5 0  16 7.5 0  16.5 7.5 0  17 7.5 0  17.5 7.5 0  18 7.5 0  18.5 7.5 0  19 7.5 0  19.5 7.5 0  20 7.5 0  0 8 0  0.5 8 0  1 8 0  1.5 8 0  2 8 0  2.5 8 0  3 8 0  3.5 8 0  4 8 0  4.5 8 0  5 8 0  5.5 8 0  6 8 0  6.5 8 0  7 8 0  7.5 8 0  8 8 0  8.5 8 0  9 8 0  9.5 8 0  10 8 0  10.5 8 0  11 8 0  11.5 8 0  12 8 0  12.5 8 0  13 8 0  13.5 8 0  14 8 0  14.5 8 0  15 8 0  15.5 8 0  16 8 0  16.5 8 0  17 8 0  17.5 8 0  18 8 0  18.5 8 0  19 8 0  19.5 8 0  20 8 0  0 8.5 0  0.5 8.5 0  1 8.5 0  1.5 8.5 0  2 8.5 0  2.5 8.5 0  3 8.5 0  3.5 8.5 0  4 8.5 0  4.5 8.5 0  5 8.5 0  5.5 8.5 0  6 8.5 0  6.5 8.5 0  7 8.5 0  7.5 8.5 0  8 8.5 0  8.5 8.5 0  9 8.5 0  9.5 8.5 0  10 8.5 0  10.5 8.5 0  11 8.5 0  11.5 8.5 0  12 8.5 0  12.5 8.5 0  13 8.5 0  13.5 8.5 0  14 8.5 0  14.5 8.5 0  15 8.5 0  15.5 8.5 0  16 8.5 0  16.5 8.5 0  17 8.5 0  17.5 8.5 0  18 8.5 0  18.5 8.5 0  19 8.5 0  19.5 8.5 0  20 8.5 0  0 9 0  0.5 9 0  1 9 0  1.5 9 0  2 9 0  2.5 9 0  3 9 0  3.5 9 0  4 9 0  4.5 9 0  5 9 0  5.5 9 0  6 9 0  6.5 9 0  7 9 0  7.5 9 0  8 9 0  8.5 9 0  9 9 0  9.5 9 0  10 9 0  10.5 9 0  11 9 0  11.5 9 0  12 9 0  12.5 9 0  13 9 0  13.5 9 0  14 9 0  14.5 9 0  15 9 0  15.5 9 0  16 9 0  16.5 9 0  17 9 0  17.5 9 0  18 9 0  18.5 9 0  19 9 0  19.5 9 0  20 9 0  0 9.5 0  0.5 9.5 0  1 9.5 0  1.5 9.5 0  2 9.5 0  2.5 9.5 0  3 9.5 0  3.5 9.5 0  4 9.5 0  4.5 9.5 0  5 9.5 0  5.5 9.5 0  6 9.5 0  6.5 9.5 0  7 9.5 0  7.5 9.5 0  8 9.5 0  8.5 9.5 0  9 9.5 0  9.5 9.5 0  10 9.5 0  10.5 9.5 0  11 9.5 0  11.5 9.5 0  12 9.5 0  12.5 9.5 0  13 9.5 0  13.5 9.5 0  14 9.5 0  14.5 9.5 0  15 9.5 0  15.5 9.5 0  16 9.5 0  16.5 9.5 0  17 9.5 0  17.5 9.5 0  18 9.5 0  18.5 9.5 0  19 9.5 0  19.5 9.5 0  20 9.5 0  0 10 0  0.5 10 0  1 10 0  1.5 10 0  2 10 0  2.5 10 0  3 10 0  3.5 10 0  4 10 0  4.5 10 0  5 10 0  5.5 10 0  6 10 0  6.5 10 0  7 10 0  7.5 10 0  8 10 0  8.5 10 0  9 10 0  9.5 10 0  10 10 0  10.5 10 0  11 10 0  11.5 10 0  12 10 0  12.5 10 0  13 10 0  13.5 10 0  14 10 0  14.5 10 0  15 10 0  15.5 10 0  16 10 0  16.5 10 0  17 10 0  17.5 10 0  18 10 0  18.5 10 0  19 10 0  19.5 10 0  20 10 0  0 10.5 0  0.5 10.5 0  1 10.5 0  1.5 10.5 0  2 10.5 0  2.5 10.5 0  3 10.5 0  3.5 10.5 0  4 10.5 0  4.5 10.5 0  5 10.5 0  5.5 10.5 0  6 10.5 0  6.5 10.5 0  7 10.5 0  7.5 10.5 0  8 10.5 0  8.5 10.5 0  9 10.5 0  9.5 10.5 0  10 10.5 0  10.5 10.5 0  11 10.5 0  11.5 10.5 0  12 10.5 0  12.5 10.5 0  13 10.5 0  13.5 10.5 0  14 10.5 0  14.5 10.5 0  15 10.5 0  15.5 10.5 0  16 10.5 0  16.5 10.5 0  17 10.5 0  17.5 10.5 0  18 10.5 0  18.5 10.5 0  19 10.5 0  19.5 10.5 0  20 10.5 0  0 11 0  0.5 11 0  1 11 0  1.5 11 0  2 11 0  2.5 11 0  3 11 0  3.5 11 0  4 11 0  4.5 11 0  5 11 0  5.5 11 0  6 11 0  6.5 11 0  7 11 0  7.5 11 0  8 11 0  8.5 11 0  9 11 0  9.5 11 0  10 11 0  10.5 11 0  11 11 0  11.5 11 0  12 11 0  12.5 11 0  13 11 0  13.5 11 0  14 11 0  14.5 11 0  15 11 0  15.5 11 0  16 11 0  16.5 11 0  17 11 0  17.5 11 0  18 11 0  18.5 11 0  19 11 0  19.5 11 0  20 11 0  0 11.5 0  0.5 11.5 0  1 11.5 0  1.5 11.5 0  2 11.5 0  2.5 11.5 0  3 11.5 0  3.5 11.5 0  4 11.5 0  4.5 11.5 0  5 11.5 0  5.5 11.5 0  6 11.5 0  6.5 11.5 0  7 11.5 0  7.5 11.5 0  8 11.5 0  8.5 11.5 0  9 11.5 0  9.5 11.5 0  10 11.5 0  10.5 11.5 0  11 11.5 0  11.5 11.5 0  12 11.5 0  12.5 11.5 0  13 11.5 0  13.5 11.5 0  14 11.5 0  14.5 11.5 0  15 11.5 0  15.5 11.5 0  16 11.5 0  16.5 11.5 0  17 11.5 0  17.5 11.5 0  18 11.5 0  18.5 11.5 0  19 11.5 0  19.5 11.5 0  20 11.5 0  0 12 0  0.5 12 0  1 12 0  1.5 12 0  2 12 0  2.5 12 0  3 12 0  3.5 12 0  4 12 0  4.5 12 0  5 12 0  5.5 12 0  6 12 0  6.5 12 0  7 12 0  7.5 12 0  8 12 0  8.5 12 0  9 12 0  9.5 12 0  10 12 0  10.5 12 0  11 12 0  11.5 12 0  12 12 0  12.5 12 0  13 12 0  13.5 12 0  14 12 0  14.5 12 0  
[...]
<PointData  Vectors="f_5623-0"> 
<DataArray  type="Float64"  Name="f_5623-0"  NumberOfComponents="3" format="ascii">0.0000000000000000e+00 0.0000000000000000e+00 0.0000000000000000e+00  2.0641155230506551e-06 0.0000000000000000e+00 0.0000000000000000e+00  9.8465707775421774e-06 0.0000000000000000e+00 0.0000000000000000e+00  3.1091105690409296e-05 0.0000000000000000e+00 0.0000000000000000e+00  7.2482078122683549e-05 0.0000000000000000e+00 0.0000000000000000e+00  1.4055452691767679e-04 0.0000000000000000e+00 0.0000000000000000e+00  2.4171719265719788e-04 0.0000000000000000e+00 0.0000000000000000e+00  3.8220955241442312e-04 0.0000000000000000e+00 0.0000000000000000e+00  5.6805139013562278e-04 0.0000000000000000e+00 0.0000000000000000e+00  8.0498480342166472e-04 0.0000000000000000e+00 0.0000000000000000e+00  1.0984048477147733e-03 0.0000000000000000e+00 0.0000000000000000e+00  1.4532743436934939e-03 0.0000000000000000e+00 0.0000000000000000e+00  1.8740171938508876e-03 0.0000000000000000e+00 0.0000000000000000e+00  2.3643827921905982e-03 0.0000000000000000e+00 0.0000000000000000e+00  2.9272717637942001e-03 0.0000000000000000e+00 0.0000000000000000e+00  3.5645102746283937e-03 0.0000000000000000e+00 0.0000000000000000e+00  4.2765564319953136e-03 0.0000000000000000e+00 0.0000000000000000e+00  5.0621178051262128e-03 0.0000000000000000e+00 0.0000000000000000e+00  5.9176538495314011e-03 0.0000000000000000e+00 0.0000000000000000e+00  6.8367311391000765e-03 0.0000000000000000e+00 0.0000000000000000e+00  7.8091930833809392e-03 0.0000000000000000e+00 0.0000000000000000e+00  8.8200997562611558e-03 0.0000000000000000e+00 0.0000000000000000e+00  9.8483884382148043e-03 0.0000000000000000e+00 0.0000000000000000e+00  1.0865202755130730e-02 0.0000000000000000e+00 0.0000000000000000e+00  1.1831839691015773e-02 0.0000000000000000e+00 0.0000000000000000e+00  1.2697271669218944e-02 0.0000000000000000e+00 0.0000000000000000e+00  1.3395218350402638e-02 0.0000000000000000e+00 0.0000000000000000e+00  1.3840773246135770e-02 0.0000000000000000e+00 0.0000000000000000e+00  1.3926637183728373e-02 0.0000000000000000e+00 0.0000000000000000e+00  1.3519076763578667e-02 0.0000000000000000e+00 0.0000000000000000e+00  1.2453811727046673e-02 0.0000000000000000e+00 0.0000000000000000e+00  1.0532136974707694e-02 0.0000000000000000e+00 0.0000000000000000e+00  7.5176928042643039e-03 0.0000000000000000e+00 0.0000000000000000e+00  3.1343924135956674e-03 0.0000000000000000e+00 0.0000000000000000e+00  -2.9339280574512149e-03 0.0000000000000000e+00 0.0000000000000000e+00  -1.1041586709955101e-02 0.0000000000000000e+00 0.0000000000000000e+00  -2.1576424123461078e-02 0.0000000000000000e+00 0.0000000000000000e+00  -3.4952242964314963e-02 0.0000000000000000e+00 0.0000000000000000e+00  -5.1598338264895079e-02 0.0000000000000000e+00 0.0000000000000000e+00  -7.1945949989699901e-02 0.0000000000000000e+00 0.0000000000000000e+00  -9.6408996548095857e-02 0.0000000000000000e+00 0.0000000000000000e+00  0.0000000000000000e+00 2.0641155229836687e-06 0.0000000000000000e+00  -2.2923268755652435e-06 -2.2923268785925469e-06 0.0000000000000000e+00  2.4176832373491510e-06 -1.2895542822236155e-05 0.0000000000000000e+00  2.0429765741340579e-05 -2.9845670356850253e-05 0.0000000000000000e+00  5.8494427894000349e-05 -5.3305241295500377e-05 0.0000000000000000e+00  1.2320972420063953e-04 -8.3265050876776177e-05 0.0000000000000000e+00  2.2100947385047425e-04 -1.1962093892511093e-04 0.0000000000000000e+00  3.5814433670514843e-04 -1.6221402984557714e-04 0.0000000000000000e+00  5.4064145283789144e-04 -2.1084333186161813e-04 0.0000000000000000e+00  7.7424995431875886e-04 -2.6526791246055451e-04 0.0000000000000000e+00  1.0643728945628019e-03 -3.2520557087692322e-04 0.0000000000000000e+00  1.4159825871556261e-03 -3.9033032566192124e-04 0.0000000000000000e+00  1.8335141658216202e-03 -4.6026949800875432e-04 0.0000000000000000e+00  2.3207300997868060e-03 -5.3460070477161399e-04 0.0000000000000000e+00  2.8805459489719735e-03 -6.1284894402814671e-04 0.0000000000000000e+00  3.5148046109113474e-03 -6.9448392743220978e-04 0.0000000000000000e+00  4.2239825764799621e-03 -7.7891781810690314e-04 0.0000000000000000e+00  5.0068072146089593e-03 -8.6550354773409235e-04 0.0000000000000000e+00  5.8597588575918132e-03 -9.5353390566878455e-04 0.0000000000000000e+00  6.7764255797939672e-03 -1.0422416118694034e-03 0.0000000000000000e+00  7.7466723391783872e-03 -1.1308006033597022e-03 0.0000000000000000e+00  8.7555801079316400e-03 -1.2183287781811095e-03 0.0000000000000000e+00  9.7821056076386106e-03 -1.3038924500333329e-03 0.0000000000000000e+00  1.0797409566751582e-02 -1.3865127675070307e-03 0.0000000000000000e+00  1.1762802843225582e-02 -1.4651743407717228e-03 0.0000000000000000e+00  1.2627267714178925e-02 -1.5388362886252936e-03 0.0000000000000000e+00  1.3324529138220603e-02 -1.6064458621485511e-03 0.0000000000000000e+00  1.3769681298572371e-02 -1.6669547037905491e-03 0.0000000000000000e+00  1.3855421709671779e-02 -1.7193376476982117e-03 0.0000000000000000e+00  1.3448011271622162e-02 -1.7626137396580298e-03 0.0000000000000000e+00  1.2383164348667087e-02 -1.7958688412528028e-03 0.0000000000000000e+00  1.0462174555158136e-02 -1.8182787851270953e-03 0.0000000000000000e+00  7.4486893711636099e-03 -1.8291316006298949e-03 0.0000000000000000e+00  3.0666415726251818e-03 -1.8278469114167751e-03 0.0000000000000000e+00  -3.0000992625970235e-03 -1.8139903379341710e-03 0.0000000000000000e+00  -1.1105808799967094e-02 -1.7872806865182431e-03 0.0000000000000000e+00  -2.1638296723109792e-02 -1.7475874610047700e-03 0.0000000000000000e+00  -3.5011414675015402e-02 -1.6949131494538991e-03 0.0000000000000000e+00  -5.1654852758765551e-02 -1.6293375936566705e-03 0.0000000000000000e+00  -7.2001914900999817e-02 -1.5508311046313280e-03 0.0000000000000000e+00  -9.6477361109304813e-02 -1.4586429850960445e-03 0.0000000000000000e+00  0.0000000000000000e+00 9.8465707739683302e-06 0.0000000000000000e+00  -1.2895542822641782e-05 2.4176832363752817e-06 0.0000000000000000e+00  -1.8374042227645087e-05 -1.8374042224187204e-05 0.0000000000000000e+00  -1.0425539651312248e-05 -5.2337079023612290e-05 0.0000000000000000e+00  1.7579584141831635e-05 -9.9408750125161321e-05 0.0000000000000000e+00  7.2220375119561142e-05 -1.5945569832040790e-04 0.0000000000000000e+00  1.5994194763170190e-04 -2.3225921449357081e-04 0.0000000000000000e+00  2.8701180410275947e-04 -3.1751456817774457e-04 0.0000000000000000e+00  4.5947546735494233e-04 -4.1483355637411239e-04 0.0000000000000000e+00  6.8310264449634799e-04 -5.2374507042859562e-04 0.0000000000000000e+00  9.6332033968741712e-04 -6.4369299455270686e-04 0.0000000000000000e+00  1.3051291289054260e-03 -7.7403219243010030e-04 0.0000000000000000e+00  1.7129973469414163e-03 -9.1402340450863213e-04 0.0000000000000000e+00  2.1907259695620263e-03 -1.0628276746485579e-03 0.0000000000000000e+00  2.7412745130468582e-03 -1.2195007670291894e-03 0.0000000000000000e+00  3.3665352156394893e-03 -1.3829879566782299e-03 0.0000000000000000e+00  4.0670390126393841e-03 -1.5521195547386264e-03 0.0000000000000000e+00  4.8415723092041230e-03 -1.7256075378379845e-03 0.0000000000000000e+00  5.6866783022515724e-03 -1.9020436732397265e-03 0.0000000000000000e+00  6.5960107245315791e-03 -2.0798995585052976e-03 0.0000000000000000e+00  7.5595016662335169e-03 -2.2575290191604327e-03 0.0000000000000000e+00  8.5622990970566065e-03 -2.4331733255276017e-03 0.0000000000000000e+00  9.5834247177548886e-03 -2.6049696953786687e-03 0.0000000000000000e+00  1.0594100096376551e-02 -2.7709635370118269e-03 0.0000000000000000e+00  1.1555690500878792e-02 -2.9291248518620266e-03 0.0000000000000000e+00  1.2417223837119363e-02 -3.0773691485794521e-03 0.0000000000000000e+00  1.3112459647472452e-02 -3.2135831125814042e-03 0.0000000000000000e+00  1.3556513668558621e-02 -3.3356551131788503e-03 0.0000000000000000e+00  1.3642090448031514e-02 -3.4415104007641060e-03 0.0000000000000000e+00  1.3235442618060263e-02 -3.5291505322506554e-03 0.0000000000000000e+00  1.2172261054646458e-02 -3.5966961527476825e-03 0.0000000000000000e+00  1.0253801614228177e-02 -3.6424317522804825e-03 0.0000000000000000e+00  7.2436613162293884e-03 -3.6648504255307668e-03 0.0000000000000000e+00  2.8657112889306446e-03 -3.6626960253017559e-03 0.0000000000000000e+00  -3.1962515581346589e-03 -3.6349994370515259e-03 0.0000000000000000e+00  -1.1296590052554236e-02 -3.5811049024172641e-03 0.0000000000000000e+00  -2.1823226538515098e-02 -3.5006809466543291e-03 0.0000000000000000e+00  -3.5190175276209823e-02 -3.3937079887039730e-03 0.0000000000000000e+00  -5.1827378545317021e-02 -3.2604345352952140e-03 0.0000000000000000e+00  -7.2168447299707256e-02 -3.1013266476480773e-03 0.0000000000000000e+00  -9.6637311159069164e-02 -2.9172730975250191e-03 0.0000000000000000e+00  0.0000000000000000e+00 3.1091105691139039e-05 0.0000000000000000e+00  -2.9845670357204787e-05 2.0429765740868738e-05 0.0000000000000000e+00  -5.2337079022806511e-05 -1.0425539651138378e-05 0.0000000000000000e+00  -6.1254242459377425e-05 -6.1254242458684064e-05 0.0000000000000000e+00  -5.0067280706251585e-05 -1.3186106257821688e-04 0.0000000000000000e+00  -1.2225307983738346e-05 -2.2198618755763056e-04 0.0000000000000000e+00  5.8714970718230069e-05 -3.3126978960658186e-04 0.0000000000000000e+00  1.6903339062304250e-04 -4.5924443793320216e-04 0.0000000000000000e+00  3.2479731948053815e-04 -6.0533004350297721e-04 0.0000000000000000e+00  5.3180623301695709e-04 -7.6882811405149627e-04 0.0000000000000000e+00  7.9552467434116357e-04 -9.4891509182957448e-04 0.0000000000000000e+00  1.1209989118516829e-03 -1.1446348111893733e-03 0.0000000000000000e+00  1.5127516069576251e-03 -1.3548902838342834e-03 0.0000000000000000e+00  1.9746470696189143e-03 -1.5784351531622676e-03 0.0000000000000000e+00  2.5097173226357877e-03 -1.8138652358195414e-03 0.0000000000000000e+00  3.1199361793030705e-03 -2.0596106136197873e-03 0.0000000000000000e+00  3.8059248009812445e-03 -2.3139287752075273e-03 0.0000000000000000e+00  4.5665676981050795e-03 -2.5748993445107817e-03 0.0000000000000000e+00  5.3985128883989545e-03 -2.8404209726690596e-03 0.0000000000000000e+00  6.2955240529059611e-03 -3.1082110092965015e-03 0.0000000000000000e+00  7.2476463219156260e-03 -3.3758086010101107e-03 0.0000000000000000e+00  8.2401413055572456e-03 -3.6405818861052126e-03 0.0000000000000000e+00  9.2521420113167632e-03 -3.8997399564416977e-03 0.0000000000000000e+00  1.0254975645953643e-02 -4.1503502359138671e-03 0.0000000000000000e+00  1.1210103791725433e-02 -4.3893618719786521e-03 0.0000000000000000e+00  1.2066637486218609e-02 -4.6136356461868571e-03 0.0000000000000000e+00  1.2758402326215898e-02 -4.8199807734324689e-03 0.0000000000000000e+00  1.3200559300813913e-02 -5.0051987682882548e-03 0.0000000000000000e+00  1.3285834089503807e-02 -5.1661342989824978e-03 0.0000000000000000e+00  1.2880473661542947e-02 -5.2997326094582639e-03 0.0000000000000000e+00  1.1820134606953589e-02 -5.4031026497936962e-03 0.0000000000000000e+00  9.9060090014783317e-03 -5.4735844952724100e-03 0.0000000000000000e+00  6.9016006443951101e-03 -5.5088189374827221e-03 0.0000000000000000e+00  2.5306587976305240e-03 -5.5068162883843376e-03 0.0000000000000000e+00  -3.5231688783686158e-03 -5.4660204555393253e-03 0.0000000000000000e+00  -1.1614420144460487e-02 -5.3853632885957391e-03 0.0000000000000000e+00  -2.2131214838297816e-02 -5.2643034281300684e-03 0.0000000000000000e+00  -3.5487779129855082e-02 -5.1028449994650216e-03 0.0000000000000000e+00  -5.2114259898144860e-02 -4.9015395722644180e-03 0.0000000000000000e+00  -7.2444414442316335e-02 -4.6614993426327663e-03 0.0000000000000000e+00  -9.6902224110695961e-02 -4.3844768949474625e-03 0.0000000000000000e+00  0.0000000000000000e+00 7.2482078122254801e-05 0.0000000000000000e+00  -5.3305241296797137e-05 5.8494427894296892e-05 0.0000000000000000e+00  -9.9408750125363335e-05 1.7579584143335481e-05 0.0000000000000000e+00  -1.3186106258217809e-04 -5.0067280701143624e-05 0.0000000000000000e+00  -1.4416381538146788e-04 -1.4416381537818253e-04 0.0000000000000000e+00  -1.2978643258553400e-04 -2.6434026146155472e-04 0.0000000000000000e+00  -8.2285003315026668e-05 -4.1010574774546832e-04 0.0000000000000000e+00  4.6350722401277698e-06 -5.8083529523349252e-04 0.0000000000000000e+00  1.3706759642680415e-04 -7.7576073709180579e-04 0.0000000000000000e+00  3.2084978280545078e-04 -9.9396137341492010e-04 0.0000000000000000e+00  5.6149550550464646e-04 -1.2343536012786930e-03 0.0000000000000000e+00  8.6411245755228696e-04 -1.4956796442599327e-03 0.0000000000000000e+00  1.2332973303110372e-03 -1.7764956970728885e-03 0.0000000000000000e+00  1.6730014571407403e-03 -2.0751598697150856e-03 0.0000000000000000e+00  2.1863570366693406e-03 -2.3898203825986502e-03 0.0000000000000000e+00  2.7754510532648487e-03 -2.7184045376186373e-03 0.0000000000000000e+00  3.4410302857493134e-03 -3.0586090649560574e-03 0.0000000000000000e+00  4.1821163008841471e-03 -3.4078925173914995e-03 0.0000000000000000e+00  4.9955040858322289e-03 -3.7634704513649980e-03 0.0000000000000000e+00  5.8751121102083980e-03 -4.1223141936985175e-03 0.0000000000000000e+00  6.8111454132215666e-03 -4.4811540402118922e-03 0.0000000000000000e+00  7.7890273132857814e-03 -4.8364877633564158e-03 0.0000000000000000e+00  8.7880503910785571e-03 -5.1845953127133970e-03 0.0000000000000000e+00  9.7796947857134407e-03 -5.5215605709371136e-03 0.0000000000000000e+00  1.0725563376961619e-02 -5.8433009705088140e-03 0.0000000000000000e+00  1.1574891512320619e-02 -6.1456056794524407e-03 0.0000000000000000e+00  1.2261606577924298e-02 -6.4241829201114910e-03 0.0000000000000000e+00  1.2700943343345856e-02 -6.6747167869349406e-03 0.0000000000000000e+00  1.2785668076806901e-02 -6.8929336650030808e-03 0.0000000000000000e+00  1.2382030544459134e-02 -7.0746780009634828e-03 0.0000000000000000e+00  1.1325648590554573e-02 -7.2159967117600681e-03 0.0000000000000000e+00  9.4176313283229739e-03 -7.3132308915089730e-03 0.0000000000000000e+00  6.4213539565062686e-03 -7.3631126456637818e-03 0.0000000000000000e+00  2.0603914877574494e-03 -7.3628638129392115e-03 0.0000000000000000e+00  -3.9818266631277228e-03 -7.3102920594424036e-03 0.0000000000000000e+00  -1.2060096647014124e-02 -7.2038785366901883e-03 0.0000000000000000e+00  -2.2562829871978954e-02 -7.0428504920819280e-03 0.0000000000000000e+00  -3.5904566485921233e-02 -6.8272327791495087e-03 0.0000000000000000e+00  -5.2515776656287795e-02 -6.5578741360550752e-03 0.0000000000000000e+00  -7.2830538404045880e-02 -6.2364396301363622e-03 0.0000000000000000e+00  -9.7273124064841662e-02 -5.8653117701885360e-03 0.0000000000000000e+00  0.0000000000000000e+00 1.4055452692195223e-04 0.0000000000000000e+00  -8.3265050877580018e-05 1.2320972420153009e-04 0.0000000000000000e+00  -1.5945569832299239e-04 7.2220375121042881e-05 0.0000000000000000e+00  -2.2198618756178733e-04 -1.2225307979458450e-05 0.0000000000000000e+00  -2.6434026146253788e-04 -1.2978643258575566e-04 0.0000000000000000e+00  -2.7999746612595216e-04 -2.7999746612544758e-04 0.0000000000000000e+00  -2.6251031073385632e-04 -4.6224763023838627e-04 0.0000000000000000e+00  -2.0556619744887720e-04 -6.7576515135455188e-04 0.0000000000000000e+00  -1.0303965560109724e-04 -9.1960476169074246e-04 0.0000000000000000e+00  5.0952136788701320e-05 -1.1926350543272346e-03 0.0000000000000000e+00  2.6198340208200222e-04 -1.4935247595201841e-03 0.0000000000000000e+00  5.3523783143093662e-04 -1.8207279569800866e-03 0.0000000000000000e+00  8.7540457102210881e-04 -2.1724685556972962e-03 0.0000000000000000e+00  1.2865444490477546e-03 -2.5467245042172315e-03 0.0000000000000000e+00  1.7719164672034221e-03 -2.9412122809983911e-03 0.0000000000000000e+00  2.3337515890936868e-03 -3.3533722976252971e-03 0.0000000000000000e+00  2.9729571330471389e-03 -3.7803559357485359e-03 0.0000000000000000e+00  3.6887305843069022e-03 -4.2190150291099180e-03 0.0000000000000000e+00  4.4780564043463717e-03 -4.6658946903102632e-03 0.0000000000000000e+00  5.3350535605628940e-03 -5.1172304626650976e-03 0.0000000000000000e+00  6.2501353192694941e-03 -5.5689508444946986e-03 0.0000000000000000e+00  7.2089368679911364e-03 -6.0166862807976527e-03 0.0000000000000000e+00  8.1909614154446336e-03 -6.4557857387938121e-03 0.0000000000000000e+00  9.1678928429279483e-03 -6.8813419740587278e-03 0.0000000000000000e+00  1.0101524558347390e-02 -7.2882265469432200e-03 0.0000000000000000e+00  1.0941262340325848e-02 -7.6711355603840334e-03 0.0000000000000000e+00  1.1621176654026139e-02 -8.0246469544966170e-03 0.0000000000000000e+00  1.2056610604901345e-02 -8.3432900023161106e-03 0.0000000000000000e+00  1.2140396810722322e-02 -8.6216273893877510e-03 0.0000000000000000e+00  1.1738802626012294e-02 -8.8543498992942546e-03 0.0000000000000000e+00  1.0687408756934460e-02 -9.0363832206428775e-03 0.0000000000000000e+00  8.7872276446411598e-03 -9.1630056719358786e-03 0.0000000000000000e+00  5.8014749837709502e-03 -9.2299746325594217e-03 0.0000000000000000e+00  1.4535020382050933e-03 -9.2336581161007059e-03 0.0000000000000000e+00  -4.5735488558727149e-03 -9.1711662469155363e-03 0.0000000000000000e+00  -1.2634820490168392e-02 -9.0404755633139103e-03 0.0000000000000000e+00  -2.3119123361962490e-02 -8.8405373537846863e-03 0.0000000000000000e+00  -3.6441438386582266e-02 -8.5713596769455835e-03 0.0000000000000000e+00  -5.3032702096307845e-02 -8.2340498358178804e-03 0.0000000000000000e+00  -7.3327449026241193e-02 -7.8307944516142775e-03 0.0000000000000000e+00  -9.7750273183433212e-02 -7.3647301165037406e-03 0.0000000000000000e+00  0.0000000000000000e+00 2.4171719265766797e-04 0.0000000000000000e+00  -1.1962093892607156e-04 2.2100947385136649e-04 0.0000000000000000e+00  -2.3225921449648734e-04 1.5994194763618890e-04 0.0000000000000000e+00  -3.3126978960761879e-04 5.8714970721642046e-05 0.0000000000000000e+00  -4.1010574774589967e-04 -8.2285003314008033e-05 0.0000000000000000e+00  -4.6224763023909604e-04 -2.6251031073306599e-04 0.0000000000000000e+00  -4.8124225443916760e-04 -4.8124225444043627e-04 0.0000000000000000e+00  -4.6075712420991179e-04 -7.3757497545645341e-04 0.0000000000000000e+00  -3.9463128503999117e-04 -1.0304001225095261e-03 0.0000000000000000e+00  -2.7692980309924415e-04 -1.3583909629048324e-03 0.0000000000000000e+00  -1.0200846149780788e-04 -1.7199852319577350e-03 0.0000000000000000e+00  1.3540559325268977e-04 -2.1133667153611022e-03 0.0000000000000000e+00  4.4011097361837517e-04 -2.5364458984890831e-03 0.0000000000000000e+00  8.1629913442241974e-04 -2.9868401912763335e-03 0.0000000000000000e+00  1.2673813358376430e-03 -3.4618543572127835e-03 0.0000000000000000e+00  1.7957624214816660e-03 -3.9584618828873300e-03 0.0000000000000000e+00  2.4025446231312995e-03 -4.4732881331424447e-03 0.0000000000000000e+00  3.0871401112330023e-03 -5.0025962472855633e-03 0.0000000000000000e+00  3.8467657757972045e-03 -5.5422768418081107e-03 0.0000000000000000e+00  4.6757878754299029e-03 -6.0878426880720989e-03 0.0000000000000000e+00  5.5648780254725569e-03 -6.6344296245523472e-03 0.0000000000000000e+00  6.4999360405134732e-03 -7.1768050344483639e-03 0.0000000000000000e+00  7.4607302581264287e-03 -7.7093852652814219e-03 0.0000000000000000e+00  8.4192034338192029e-03 -8.2262633809180360e-03 0.0000000000000000e+00  9.3373939209246588e-03 -8.7212486132247028e-03 0.0000000000000000e+00  1.0164930038985300e-02 -9.1879188151569348e-03 0.0000000000000000e+00  1.0836073287981135e-02 -9.6196871036931756e-03 0.0000000000000000e+00  1.1266316813661808e-02 -1.0009883708304407e-02 0.0000000000000000e+00  1.1348592707734799e-02 -1.0351853787305031e-02 0.0000000000000000e+00  1.0949207943006719e-02 -1.0639071600318869e-02 0.0000000000000000e+00  9.9037144064157909e-03 -1.0865270864126968e-02 0.0000000000000000e+00  8.0130198867939487e-03 -1.1024590277632907e-02 0.0000000000000000e+00  5.0401539142612877e-03 -1.1111731970190835e-02 0.0000000000000000e+00  7.0819669766542036e-04 -1.1122128918037098e-02 0.0000000