<?xml version="1.0"?>
<VTKFile type="UnstructuredGrid"  version="0.1"  >
<UnstructuredGrid>
<Piece  NumberOfPoints="1681" NumberOfCells="3200">
<Points>
<DataArray  type="Float64"  NumberOfComponents="3"  format="ascii">0 0 0  0.5 0 0  1 0 0  1.5 0 0  2 0 0  2.5 0 0  3 0 0  3.5 0 0  4 0 0  4.5 0 0  5 0 0  5.5 0 0  6 0 0  6.5 0 0  7 0 0  7.5 0 0  8 0 0  8.5 0 0  9 0 0  9.5 0 0  10 0 0  10.5 0 0  11 0 0  11.5 0 0  12 0 0  12.5 0 0  13 0 0  13.5 0 0  14 0 0  14.5 0 0  15 0 0  15.5 0 0  16 0 0  16.5 0 0  17 0 0  17.5 0 0  18 0 0  18.5 0 0  19 0 0  19.5 0 0  20 0 0  0 0.5 0  0.5 0.5 0  1 0.5 0  1.5 0.5 0  2 0.5 0  2.5 0.5 0  3 0.5 0  3.5 0.5 0  4 0.5 0  4.5 0.5 0  5 0.5 0  5.5 0.5 0  6 0.5 0  6.5 0.5 0  7 0.5 0  7.5 0.5 0  8 0.5 0  8.5 0.5 0  9 0.5 0  9.5 0.5 0  10 0.5 0  10.5 0.5 0  11 0.5 0  11.5 0.5 0  12 0.5 0  12.5 0.5 0  13 0.5 0  13.5 0.5 0  14 0.5 0  14.5 0.5 0  15 0.5 0  15.5 0.5 0  16 0.5 0  16.5 0.5 0  17 0.5 0  17.5 0.5 0  18 0.5 0  18.5 0.5 0  19 0.5 0  19.5 0.5 0  20 0.5 0  0 1 0  0.5 1 0  1 1 0  1.5 1 0  2 1 0  2.5 1 0  3 1 0  3.5 1 0  4 1 0  4.5 1 0  5 1 0  5.5 1 0  6 1 0  6.5 1 0  7 1 0  7.5 1 0  8 1 0  8.5 1 0  9 1 0  9.5 1 0  10 1 0  10.5 1 0  11 1 0  11.5 1 0  12 1 0  12.5 1 0  13 1 0  13.5 1 0  14 1 0  14.5 1 0  15 1 0  15.5 1 0  16 1 0  16.5 1 0  17 1 0  17.5 1 0  18 1 0  18.5 1 0  19 1 0  19.5 1 0  20 1 0  0 1.5 0  0.5 1.5 0  1 1.5 0  1.5 1.5 0  2 1.5 0  2.5 1.5 0  3 1.5 0  3.5 1.5 0  4 1.5 0  4.5 1.5 0  5 1.5 0  5.5 1.5 0  6 1.5 0  6.5 1.5 0  7 1.5 0  7.5 1.5 0  8 1.5 0  8.5 1.5 0  9 1.5 0  9.5 1.5 0  10 1.5 0  10.5 1.5 0  11 1.5 0  11.5 1.5 0  12 1.5 0  12.5 1.5 0  13 1.5 0  13.5 1.5 0  14 1.5 0  14.5 1.5 0  15 1.5 0  15.5 1.5 0  16 1.5 0  16.5 1.5 0  17 1.5 0  17.5 1.5 0  18 1.5 0  18.5 1.5 0  19 1.5 0  19.5 1.5 0  20 1.5 0  0 2 0  0.5 2 0  1 2 0  1.5 2 0  2 2 0  2.5 2 0  3 2 0  3.5 2 0  4 2 0  4.5 2 0  5 2 0  5.5 2 0  6 2 0  6.5 2 0  7 2 0  7.5 2 0  8 2 0  8.5 2 0  9 2 0  9.5 2 0  10 2 0  10.5 2 0  11 2 0  11.5 2 0  12 2 0  12.5 2 0  13 2 0  13.5 2 0  14 2 0  14.5 2 0  15 2 0  15.5 2 0  16 2 0  16.5 2 0  17 2 0  17.5 2 0  18 2 0  18.5 2 0  19 2 0  19.5 2 0  20 2 0  0 2.5 0  0.5 2.5 0  1 2.5 0  1.5 2.5 0  2 2.5 0  2.5 2.5 0  3 2.5 0  3.5 2.5 0  4 2.5 0  4.5 2.5 0  5 2.5 0  5.5 2.5 0  6 2.5 0  6.5 2.5 0  7 2.5 0  7.5 2.5 0  8 2.5 0  8.5 2.5 0  9 2.5 0  9.5 2.5 0  10 2.5 0  10.5 2.5 0  11 2.5 0  11.5 2.5 0  12 2.5 0  12.5 2.5 0  13 2.5 0  13.5 2.5 0  14 2.5 0  14.5 2.5 0  15 2.5 0  15.5 2.5 0  16 2.5 0  16.5 2.5 0  17 2.5 0  17.5 2.5 0  18 2.5 0  18.5 2.5 0  19 2.5 0  19.5 2.5 0  20 2.5 0  0 3 0  0.5 3 0  1 3 0  1.5 3 0  2 3 0  2.5 3 0  3 3 0  3.5 3 0  4 3 0  4.5 3 0  5 3 0  5.5 3 0  6 3 0  6.5 3 0  7 3 0  7.5 3 0  8 3 0  8.5 3 0  9 3 0  9.5 3 0  10 3 0  10.5 3 0  11 3 0  11.5 3 0  12 3 0  12.5 3 0  13 3 0  13.5 3 0  14 3 0  14.5 3 0  15 3 0  15.5 3 0  16 3 0  16.5 3 0  17 3 0  17.5 3 0  18 3 0  18.5 3 0  19 3 0  19.5 3 0  20 3 0  0 3.5 0  0.5 3.5 0  1 3.5 0  1.5 3.5 0  2 3.5 0  2.5 3.5 0  3 3.5 0  3.5 3.5 0  4 3.5 0  4.5 3.5 0  5 3.5 0  5.5 3.5 0  6 3.5 0  6.5 3.5 0  7 3.5 0  7.5 3.5 0  8 3.5 0  8.5 3.5 0  9 3.5 0  9.5 3.5 0  10 3.5 0  10.5 3.5 0  11 3.5 0  11.5 3.5 0  12 3.5 0  12.5 3.5 0  13 3.5 0  13.5 3.5 0  14 3.5 0  14.5 3.5 0  15 3.5 0  15.5 3.5 0  16 3.5 0  16.5 3.5 0  17 3.5 0  17.5 3.5 0  18 3.5 0  18.5 3.5 0  19 3.5 0  19.5 3.5 0  20 3.5 0  0 4 0  0.5 4 0  1 4 0  1.5 4 0  2 4 0  2.5 4 0  3 4 0  3.5 4 0  4 4 0  4.5 4 0  5 4 0  5.5 4 0  6 4 0  6.5 4 0  7 4 0  7.5 4 0  8 4 0  8.5 4 0  9 4 0  9.5 4 0  10 4 0  10.5 4 0  11 4 0  11.5 4 0  12 4 0  12.5 4 0  13 4 0  13.5 4 0  14 4 0  14.5 4 0  15 4 0  15.5 4 0  16 4 0  16.5 4 0  17 4 0  17.5 4 0  18 4 0  18.5 4 0  19 4 0  19.5 4 0  20 4 0  0 4.5 0  0.5 4.5 0  1 4.5 0  1.5 4.5 0  2 4.5 0  2.5 4.5 0  3 4.5 0  3.5 4.5 0  4 4.5 0  4.5 4.5 0  5 4.5 0  5.5 4.5 0  6 4.5 0  6.5 4.5 0  7 4.5 0  7.5 4.5 0  8 4.5 0  8.5 4.5 0  9 4.5 0  9.5 4.5 0  10 4.5 0  10.5 4.5 0  11 4.5 0  11.5 4.5 0  12 4.5 0  12.5 4.5 0  13 4.5 0  13.5 4.5 0  14 4.5 0  14.5 4.5 0  15 4.5 0  15.5 4.5 0  16 4.5 0  16.5 4.5 0  17 4.5 0  17.5 4.5 0  18 4.5 0  18.5 4.5 0  19 4.5 0  19.5 4.5 0  20 4.5 0  0 5 0  0.5 5 0  1 5 0  1.5 5 0  2 5 0  2.5 5 0  3 5 0  3.5 5 0  4 5 0  4.5 5 0  5 5 0  5.5 5 0  6 5 0  6.5 5 0  7 5 0  7.5 5 0  8 5 0  8.5 5 0  9 5 0  9.5 5 0  10 5 0  10.5 5 0  11 5 0  11.5 5 0  12 5 0  12.5 5 0  13 5 0  13.5 5 0  14 5 0  14.5 5 0  15 5 0  15.5 5 0  16 5 0  16.5 5 0  17 5 0  17.5 5 0  18 5 0  18.5 5 0  19 5 0  19.5 5 0  20 5 0  0 5.5 0  0.5 5.5 0  1 5.5 0  1.5 5.5 0  2 5.5 0  2.5 5.5 0  3 5.5 0  3.5 5.5 0  4 5.5 0  4.5 5.5 0  5 5.5 0  5.5 5.5 0  6 5.5 0  6.5 5.5 0  7 5.5 0  7.5 5.5 0  8 5.5 0  8.5 5.5 0  9 5.5 0  9.5 5.5 0  10 5.5 0  10.5 5.5 0  11 5.5 0  11.5 5.5 0  12 5.5 0  12.5 5.5 0  13 5.5 0  13.5 5.5 0  14 5.5 0  14.5 5.5 0  15 5.5 0  15.5 5.5 0  16 5.5 0  16.5 5.5 0  17 5.5 0  17.5 5.5 0  18 5.5 0  18.5 5.5 0  19 5.5 0  19.5 5.5 0  20 5.5 0  0 6 0  0.5 6 0  1 6 0  1.5 6 0  2 6 0  2.5 6 0  3 6 0  3.5 6 0  4 6 0  4.5 6 0  5 6 0  5.5 6 0  6 6 0  6.5 6 0  7 6 0  7.5 6 0  8 6 0  8.5 6 0  9 6 0  9.5 6 0  10 6 0  10.5 6 0  11 6 0  11.5 6 0  12 6 0  12.5 6 0  13 6 0  13.5 6 0  14 6 0  14.5 6 0  15 6 0  15.5 6 0  16 6 0  16.5 6 0  17 6 0  17.5 6 0  18 6 0  18.5 6 0  19 6 0  19.5 6 0  20 6 0  0 6.5 0  0.5 6.5 0  1 6.5 0  1.5 6.5 0  2 6.5 0  2.5 6.5 0  3 6.5 0  3.5 6.5 0  4 6.5 0  4.5 6.5 0  5 6.5 0  5.5 6.5 0  6 6.5 0  6.5 6.5 0  7 6.5 0  7.5 6.5 0  8 6.5 0  8.5 6.5 0  9 6.5 0  9.5 6.5 0  10 6.5 0  10.5 6.5 0  11 6.5 0  11.5 6.5 0  12 6.5 0  12.5 6.5 0  13 6.5 0  13.5 6.5 0  14 6.5 0  14.5 6.5 0  15 6.5 0  15.5 6.5 0  16 6.5 0  16.5 6.5 0  17 6.5 0  17.5 6.5 0  18 6.5 0  18.5 6.5 0  19 6.5 0  19.5 6.5 0  20 6.5 0  0 7 0  0.5 7 0  1 7 0  1.5 7 0  2 7 0  2.5 7 0  3 7 0  3.5 7 0  4 7 0  4.5 7 0  5 7 0  5.5 7 0  6 7 0  6.5 7 0  7 7 0  7.5 7 0  8 7 0  8.5 7 0  9 7 0  9.5 7 0  10 7 0  10.5 7 0  11 7 0  11.5 7 0  12 7 0  12.5 7 0  13 7 0  13.5 7 0  14 7 0  14.5 7 0  15 7 0  15.5 7 0  16 7 0  16.5 7 0  17 7 0  17.5 7 0  18 7 0  18.5 7 0  19 7 0  19.5 7 0  20 7 0  0 7.5 0  0.5 7.5 0  1 7.5 0  1.5 7.5 0  2 7.5 0  2.5 7.5 0  3 7.5 0  3.5 7.5 0  4 7.5 0  4.5 7.5 0  5 7.5 0  5.5 7.5 0  6 7.5 0  6.5 7.5 0  7 7.5 0  7.5 7.5 0  8 7.5 0  8.5 7.5 0  9 7.5 0  9.5 7.5 0  10 7.5 0  10.5 7.5 0  11 7.5 0  11.5 7.5 0  12 7.5 0  12.5 7.5 0  13 7.5 0  13.5 7.5 0  14 7.5 0  14.5 7.5 0  15 7.5 0  15.5 7.5 0  16 7.5 0  16.5 7.5 0  17 7.5 0  17.5 7.5 0  18 7.5 0  18.5 7.5 0  19 7.5 0  19.5 7.5 0  20 7.5 0  0 8 0  0.5 8 0  1 8 0  1.5 8 0  2 8 0  2.5 8 0  3 8 0  3.5 8 0  4 8 0  4.5 8 0  5 8 0  5.5 8 0  6 8 0  6.5 8 0  7 8 0  7.5 8 0  8 8 0  8.5 8 0  9 8 0  9.5 8 0  10 8 0  10.5 8 0  11 8 0  11.5 8 0  12 8 0  12.5 8 0  13 8 0  13.5 8 0  14 8 0  14.5 8 0  15 8 0  15.5 8 0  16 8 0  16.5 8 0  17 8 0  17.5 8 0  18 8 0  18.5 8 0  19 8 0  19.5 8 0  20 8 0  0 8.5 0  0.5 8.5 0  1 8.5 0  1.5 8.5 0  2 8.5 0  2.5 8.5 0  3 8.5 0  3.5 8.5 0  4 8.5 0  4.5 8.5 0  5 8.5 0  5.5 8.5 0  6 8.5 0  6.5 8.5 0  7 8.5 0  7.5 8.5 0  8 8.5 0  8.5 8.5 0  9 8.5 0  9.5 8.5 0  10 8.5 0  10.5 8.5 0  11 8.5 0  11.5 8.5 0  12 8.5 0  12.5 8.5 0  13 8.5 0  13.5 8.5 0  14 8.5 0  14.5 8.5 0  15 8.5 0  15.5 8.5 0  16 8.5 0  16.5 8.5 0  17 8.5 0  17.5 8.5 0  18 8.5 0  18.5 8.5 0  19 8.5 0  19.5 8.5 0  20 8.5 0  0 9 0  0.5 9 0  1 9 0  1.5 9 0  2 9 0  2.5 9 0  3 9 0  3.5 9 0  4 9 0  4.5 9 0  5 9 0  5.5 9 0  6 9 0  6.5 9 0  7 9 0  7.5 9 0  8 9 0  8.5 9 0  9 9 0  9.5 9 0  10 9 0  10.5 9 0  11 9 0  11.5 9 0  12 9 0  12.5 9 0  13 9 0  13.5 9 0  14 9 0  14.5 9 0  15 9 0  15.5 9 0  16 9 0  16.5 9 0  17 9 0  17.5 9 0  18 9 0  18.5 9 0  19 9 0  19.5 9 0  20 9 0  0 9.5 0  0.5 9.5 0  1 9.5 0  1.5 9.5 0  2 9.5 0  2.5 9.5 0  3 9.5 0  3.5 9.5 0  4 9.5 0  4.5 9.5 0  5 9.5 0  5.5 9.5 0  6 9.5 0  6.5 9.5 0  7 9.5 0  7.5 9.5 0  8 9.5 0  8.5 9.5 0  9 9.5 0  9.5 9.5 0  10 9.5 0  10.5 9.5 0  11 9.5 0  11.5 9.5 0  12 9.5 0  12.5 9.5 0  13 9.5 0  13.5 9.5 0  14 9.5 0  14.5 9.5 0  15 9.5 0  15.5 9.5 0  16 9.5 0  16.5 9.5 0  17 9.5 0  17.5 9.5 0  18 9.5 0  18.5 9.5 0  19 9.5 0  19.5 9.5 0  20 9.5 0  0 10 0  0.5 10 0  1 10 0  1.5 10 0  2 10 0  2.5 10 0  3 10 0  3.5 10 0  4 10 0  4.5 10 0  5 10 0  5.5 10 0  6 10 0  6.5 10 0  7 10 0  7.5 10 0  8 10 0  8.5 10 0  9 10 0  9.5 10 0  10 10 0  10.5 10 0  11 10 0  11.5 10 0  12 10 0  12.5 10 0  13 10 0  13.5 10 0  14 10 0  14.5 10 0  15 10 0  15.5 10 0  16 10 0  16.5 10 0  17 10 0  17.5 10 0  18 10 0  18.5 10 0  19 10 0  19.5 10 0  20 10 0  0 10.5 0  0.5 10.5 0  1 10.5 0  1.5 10.5 0  2 10.5 0  2.5 10.5 0  3 10.5 0  3.5 10.5 0  4 10.5 0  4.5 10.5 0  5 10.5 0  5.5 10.5 0  6 10.5 0  6.5 10.5 0  7 10.5 0  7.5 10.5 0  8 10.5 0  8.5 10.5 0  9 10.5 0  9.5 10.5 0  10 10.5 0  10.5 10.5 0  11 10.5 0  11.5 10.5 0  12 10.5 0  12.5 10.5 0  13 10.5 0  13.5 10.5 0  14 10.5 0  14.5 10.5 0  15 10.5 0  15.5 10.5 0  16 10.5 0  16.5 10.5 0  17 10.5 0  17.5 10.5 0  18 10.5 0  18.5 10.5 0  19 10.5 0  19.5 10.5 0  20 10.5 0  0 11 0  0.5 11 0  1 11 0  1.5 11 0  2 11 0  2.5 11 0  3 11 0  3.5 11 0  4 11 0  4.5 11 0  5 11 0  5.5 11 0  6 11 0  6.5 11 0  7 11 0  7.5 11 0  8 11 0  8.5 11 0  9 11 0  9.5 11 0  10 11 0  10.5 11 0  11 11 0  11.5 11 0  12 11 0  12.5 11 0  13 11 0  13.5 11 0  14 11 0  14.5 11 0  15 11 0  15.5 11 0  16 11 0  16.5 11 0  17 11 0  17.5 11 0  18 11 0  18.5 11 0  19 11 0  19.5 11 0  20 11 0  0 11.5 0  0.5 11.5 0  1 11.5 0  1.5 11.5 0  2 11.5 0  2.5 11.5 0  3 11.5 0  3.5 11.5 0  4 11.5 0  4.5 11.5 0  5 11.5 0  5.5 11.5 0  6 11.5 0  6.5 11.5 0  7 11.5 0  7.5 11.5 0  8 11.5 0  8.5 11.5 0  9 11.5 0  9.5 11.5 0  10 11.5 0  10.5 11.5 0  11 11.5 0  11.5 11.5 0  12 11.5 0  12.5 11.5 0  13 11.5 0  13.5 11.5 0  14 11.5 0  14.5 11.5 0  15 11.5 0  15.5 11.5 0  16 11.5 0  16.5 11.5 0  17 11.5 0  17.5 11.5 0  18 11.5 0  18.5 11.5 0  19 11.5 0  19.5 11.5 0  20 11.5 0  0 12 0  0.5 12 0  1 12 0  1.5 12 0  2 12 0  2.5 12 0  3 12 0  3.5 12 0  4 12 0  4.5 12 0  5 12 0  5.5 12 0  6 12 0  6.5 12 0  7 12 0  7.5 12 0  8 12 0  8.5 12 0  9 12 0  9.5 12 0  10 12 0  10.5 12 0  11 12 0  11.5 12 0  12 12 0  12.5 12 0  13 12 0  13.5 12 0  14 12 0  14.5 12 0  
[...]
<PointData  Vectors="f_5623-0"> 
<DataArray  type="Float64"  Name="f_5623-0"  NumberOfComponents="3" format="ascii">0.0000000000000000e+00 0.0000000000000000e+00 0.0000000000000000e+00  1.6895314729730182e-06 0.0000000000000000e+00 0.0000000000000000e+00  8.0739855496770861e-06 0.0000000000000000e+00 0.0000000000000000e+00  2.5455010182425540e-05 0.0000000000000000e+00 0.0000000000000000e+00  5.9291446246422002e-05 0.0000000000000000e+00 0.0000000000000000e+00  1.1492717181144161e-04 0.0000000000000000e+00 0.0000000000000000e+00  1.9761042162442784e-04 0.0000000000000000e+00 0.0000000000000000e+00  3.1246193158674404e-04 0.0000000000000000e+00 0.0000000000000000e+00  4.6443865322542721e-04 0.0000000000000000e+00 0.0000000000000000e+00  6.5829333154273143e-04 0.0000000000000000e+00 0.0000000000000000e+00  8.9852751194835262e-04 0.0000000000000000e+00 0.0000000000000000e+00  1.1893351748514371e-03 0.0000000000000000e+00 0.0000000000000000e+00  1.5345334068237939e-03 0.0000000000000000e+00 0.0000000000000000e+00  1.9374752303481868e-03 0.0000000000000000e+00 0.0000000000000000e+00  2.4009378894354729e-03 0.0000000000000000e+00 0.0000000000000000e+00  2.9269774133695594e-03 0.0000000000000000e+00 0.0000000000000000e+00  3.5167370090374126e-03 0.0000000000000000e+00 0.0000000000000000e+00  4.1701926080751064e-03 0.0000000000000000e+00 0.0000000000000000e+00  4.8858135821780897e-03 0.0000000000000000e+00 0.0000000000000000e+00  5.6601101554588336e-03 0.0000000000000000e+00 0.0000000000000000e+00  6.4870314160620571e-03 0.0000000000000000e+00 0.0000000000000000e+00  7.3571692757635580e-03 0.0000000000000000e+00 0.0000000000000000e+00  8.2567147582983755e-03 0.0000000000000000e+00 0.0000000000000000e+00  9.1661045552175156e-03 0.0000000000000000e+00 0.0000000000000000e+00  1.0058289408114466e-02 0.0000000000000000e+00 0.0000000000000000e+00  1.0896553863294734e-02 0.0000000000000000e+00 0.0000000000000000e+00  1.1631822533743277e-02 0.0000000000000000e+00 0.0000000000000000e+00  1.2199405427582449e-02 0.0000000000000000e+00 0.0000000000000000e+00  1.2515169267141420e-02 0.0000000000000000e+00 0.0000000000000000e+00  1.2471178487460162e-02 0.0000000000000000e+00 0.0000000000000000e+00  1.1930933435960453e-02 0.0000000000000000e+00 0.0000000000000000e+00  1.0724446041527873e-02 0.0000000000000000e+00 0.0000000000000000e+00  8.6435308713173585e-03 0.0000000000000000e+00 0.0000000000000000e+00  5.4378384596925388e-03 0.0000000000000000e+00 0.0000000000000000e+00  8.1229164273232811e-04 0.0000000000000000e+00 0.0000000000000000e+00  -5.5733353695735250e-03 0.0000000000000000e+00 0.0000000000000000e+00  -1.4101978173947441e-02 0.0000000000000000e+00 0.0000000000000000e+00  -2.5193425525438906e-02 0.0000000000000000e+00 0.0000000000000000e+00  -3.9294744772513164e-02 0.0000000000000000e+00 0.0000000000000000e+00  -5.6866670178470156e-02 0.0000000000000000e+00 0.0000000000000000e+00  -7.8363516243920087e-02 0.0000000000000000e+00 0.0000000000000000e+00  0.0000000000000000e+00 1.6895314735946766e-06 0.0000000000000000e+00  -1.8469121978231989e-06 -1.8469121979435127e-06 0.0000000000000000e+00  2.0259689375102408e-06 -1.0482072104641692e-05 0.0000000000000000e+00  1.6766814437223938e-05 -2.4299529927416963e-05 0.0000000000000000e+00  4.7888670658127103e-05 -4.3428679075935463e-05 0.0000000000000000e+00  1.0078587588813796e-04 -6.7859993129521656e-05 0.0000000000000000e+00  1.8072658841816283e-04 -9.7507385776891917e-05 0.0000000000000000e+00  2.9284040878919276e-04 -1.3224050498973725e-04 0.0000000000000000e+00  4.4209018611469903e-04 -1.7189472083438900e-04 0.0000000000000000e+00  6.3323439854360512e-04 -2.1627274445773511e-04 0.0000000000000000e+00  8.7078118343082028e-04 -2.6514344478526279e-04 0.0000000000000000e+00  1.1589323943697566e-03 -3.1823971994520680e-04 0.0000000000000000e+00  1.5015144667385552e-03 -3.7525604773241267e-04 0.0000000000000000e+00  1.9018913333280353e-03 -4.3584596719456248e-04 0.0000000000000000e+00  2.3628527244306001e-03 -4.9961964036225083e-04 0.0000000000000000e+00  2.8864686827637298e-03 -5.6614162206397795e-04 0.0000000000000000e+00  3.4738978393837796e-03 -6.3492897137139488e-04 0.0000000000000000e+00  4.1251327672830176e-03 -7.0544985234922671e-04 0.0000000000000000e+00  4.8386604132582972e-03 -7.7712278975249592e-04 0.0000000000000000e+00  5.6110091237032396e-03 -8.4931676327206537e-04 0.0000000000000000e+00  6.4361461542812972e-03 -9.2135234120324075e-04 0.0000000000000000e+00  7.3046810047381729e-03 -9.9250406848043113e-04 0.0000000000000000e+00  8.2028209612751615e-03 -1.0620043334312651e-03 0.0000000000000000e+00  9.1110168035949679e-03 -1.1290489391237012e-03 0.0000000000000000e+00  1.0002230280401364e-02 -1.1928045955564427e-03 0.0000000000000000e+00  1.0839752983882341e-02 -1.2524185222829425e-03 0.0000000000000000e+00  1.1574511896690133e-02 -1.3070303001398470e-03 0.0000000000000000e+00  1.2141814375476430e-02 -1.3557860237721042e-03 0.0000000000000000e+00  1.2457519768688623e-02 -1.3978546689044505e-03 0.0000000000000000e+00  1.2413681678563949e-02 -1.4324463802549250e-03 0.0000000000000000e+00  1.1873788695650514e-02 -1.4588320891028635e-03 0.0000000000000000e+00  1.0667844042315513e-02 -1.4763634730834837e-03 0.0000000000000000e+00  8.5876618726137659e-03 -1.4844917872017483e-03 0.0000000000000000e+00  5.3829063164810113e-03 -1.4827835789941056e-03 0.0000000000000000e+00  7.5853216188761867e-04 -1.4709308527424796e-03 0.0000000000000000e+00  -5.6256368450846748e-03 -1.4487529457669493e-03 0.0000000000000000e+00  -1.4152483794515220e-02 -1.4161869001350319e-03 0.0000000000000000e+00  -2.5241798523857044e-02 -1.3732602046028762e-03 0.0000000000000000e+00  -3.9340929686998816e-02 -1.3200249157522498e-03 0.0000000000000000e+00  -5.6912310105213096e-02 -1.2563726112964062e-03 0.0000000000000000e+00  -7.8419723926026530e-02 -1.1814805781489393e-03 0.0000000000000000e+00  0.0000000000000000e+00 8.0739855515241176e-06 0.0000000000000000e+00  -1.0482072105853380e-05 2.0259689376273711e-06 0.0000000000000000e+00  -1.4916757679661387e-05 -1.4916757678005112e-05 0.0000000000000000e+00  -8.3843551747435636e-06 -4.2603945640531373e-05 0.0000000000000000e+00  1.4532106390584667e-05 -8.0984350736631994e-05 0.0000000000000000e+00  5.9212204932864645e-05 -1.2994802940138940e-04 0.0000000000000000e+00  1.3093343997933532e-04 -1.8931521257278759e-04 0.0000000000000000e+00  2.3483916814641815e-04 -2.5883596125481919e-04 0.0000000000000000e+00  3.7590730286208917e-04 -3.3819218776764824e-04 0.0000000000000000e+00  5.5891327660821633e-04 -4.2699797801421343e-04 0.0000000000000000e+00  7.8838505316307980e-04 -5.2479772327442106e-04 0.0000000000000000e+00  1.0685479554247302e-03 -6.3106269746613828e-04 0.0000000000000000e+00  1.4032560469910552e-03 -7.4518675471720996e-04 0.0000000000000000e+00  1.7959053498054383e-03 -8.6648165355961192e-04 0.0000000000000000e+00  2.2493222621050102e-03 -9.9417238701258732e-04 0.0000000000000000e+00  2.7656180151390264e-03 -1.1273928377283063e-03 0.0000000000000000e+00  3.3459967073328030e-03 -1.2651820625499903e-03 0.0000000000000000e+00  3.9905002152368276e-03 -1.4064815215335097e-03 0.0000000000000000e+00  4.6976679600483498e-03 -1.5501335889594337e-03 0.0000000000000000e+00  5.4640830229388685e-03 -1.6948817103419455e-03 0.0000000000000000e+00  6.2837684805595422e-03 -1.8393725936676627e-03 0.0000000000000000e+00  7.1473892920942547e-03 -1.9821608403049430e-03 0.0000000000000000e+00  8.0412061253596571e-03 -2.1217164258244708e-03 0.0000000000000000e+00  8.9457191068616788e-03 -2.2564354275505993e-03 0.0000000000000000e+00  9.8339331589979966e-03 -2.3846543575028823e-03 0.0000000000000000e+00  1.0669174656076199e-02 -2.5046683883737106e-03 0.0000000000000000e+00  1.1402394823712334e-02 -2.6147536477116018e-03 0.0000000000000000e+00  1.1968912851519955e-02 -2.7131935906545379e-03 0.0000000000000000e+00  1.2284586170941121e-02 -2.7983092332802498e-03 0.0000000000000000e+00  1.2241452186767790e-02 -2.8684927242508206e-03 0.0000000000000000e+00  1.1702969540932926e-02 -2.9222433426778533e-03 0.0000000000000000e+00  1.0499099476387155e-02 -2.9582045305520796e-03 0.0000000000000000e+00  8.4216049262555333e-03 -2.9752000065805151e-03 0.0000000000000000e+00  5.2200928596892399e-03 -2.9722663826275576e-03 0.0000000000000000e+00  5.9945755379477638e-04 -2.9486790160423979e-03 0.0000000000000000e+00  -5.7805414352247956e-03 -2.9039669716377334e-03 0.0000000000000000e+00  -1.4302861924897201e-02 -2.8379115365378647e-03 0.0000000000000000e+00  -2.5387397511731379e-02 -2.7505201586144950e-03 0.0000000000000000e+00  -3.9481660713513611e-02 -2.6419662738839801e-03 0.0000000000000000e+00  -5.7048276361780163e-02 -2.5125084437999817e-03 0.0000000000000000e+00  -7.8550231366398687e-02 -2.3625796542499624e-03 0.0000000000000000e+00  0.0000000000000000e+00 2.5455010184632393e-05 0.0000000000000000e+00  -2.4299529924959070e-05 1.6766814436631175e-05 0.0000000000000000e+00  -4.2603945639574680e-05 -8.3843551732349691e-06 0.0000000000000000e+00  -4.9824417363085352e-05 -4.9824417361463548e-05 0.0000000000000000e+00  -4.0623302919388894e-05 -1.0739534460736695e-04 0.0000000000000000e+00  -9.6431239061375973e-06 -1.8088475873426831e-04 0.0000000000000000e+00  4.8392608256440983e-05 -2.6999806608341204e-04 0.0000000000000000e+00  1.3863765541744289e-04 -3.7435252453741242e-04 0.0000000000000000e+00  2.6608810071341812e-04 -4.9347312655961405e-04 0.0000000000000000e+00  4.3554409460523375e-04 -6.2678781630857387e-04 0.0000000000000000e+00  6.5156479112033427e-04 -7.7362190505342885e-04 0.0000000000000000e+00  9.1841351898642814e-04 -9.3319174270167012e-04 0.0000000000000000e+00  1.2399895740140456e-03 -1.1045978331510997e-03 0.0000000000000000e+00  1.6197417502399629e-03 -1.2868176859982137e-03 0.0000000000000000e+00  2.0605568911434007e-03 -1.4786987585971546e-03 0.0000000000000000e+00  2.5646142482516204e-03 -1.6789518811798838e-03 0.0000000000000000e+00  3.1331931449422330e-03 -1.8861455905982436e-03 0.0000000000000000e+00  3.7664172062436864e-03 -2.0987018337742598e-03 0.0000000000000000e+00  4.4629130961006428e-03 -2.3148935393566220e-03 0.0000000000000000e+00  5.2193552213831308e-03 -2.5328445932092975e-03 0.0000000000000000e+00  6.0298602477478506e-03 -2.7505327832089907e-03 0.0000000000000000e+00  6.8851867462482947e-03 -2.9657962969070147e-03 0.0000000000000000e+00  7.7716863666462575e-03 -3.1763443534663979e-03 0.0000000000000000e+00  8.6699445608384735e-03 -3.3797725223331343e-03 0.0000000000000000e+00  9.5530425973107055e-03 -3.5735832168200393e-03 0.0000000000000000e+00  1.0384370724316192e-02 -3.7552117442740530e-03 0.0000000000000000e+00  1.1114928087193840e-02 -3.9220581380916509e-03 0.0000000000000000e+00  1.1680062605616472e-02 -4.0715247855258544e-03 0.0000000000000000e+00  1.1995638543353702e-02 -4.2010595943388542e-03 0.0000000000000000e+00  1.1953676357825339e-02 -4.3082041073492141e-03 0.0000000000000000e+00  1.1417593177092591e-02 -4.3906455731505135e-03 0.0000000000000000e+00  1.0217284642874531e-02 -4.4462715066249632e-03 0.0000000000000000e+00  8.1444257410541107e-03 -4.4732247107428184e-03 0.0000000000000000e+00  4.9485159219069376e-03 -4.4699560563955494e-03 0.0000000000000000e+00  3.3432577539601981e-04 -4.4352714907865349e-03 0.0000000000000000e+00  -6.0385212522611979e-03 -4.3683687490171748e-03 0.0000000000000000e+00  -1.4553126812252097e-02 -4.2688582711478589e-03 0.0000000000000000e+00  -2.5629527334678704e-02 -4.1367629996600999e-03 0.0000000000000000e+00  -3.9715356492102123e-02 -3.9724967539905877e-03 0.0000000000000000e+00  -5.7273289911303767e-02 -3.7768370384014564e-03 0.0000000000000000e+00  -7.8766233385489784e-02 -3.5509199136184908e-03 0.0000000000000000e+00  0.0000000000000000e+00 5.9291446247121841e-05 0.0000000000000000e+00  -4.3428679076532451e-05 4.7888670657781466e-05 0.0000000000000000e+00  -8.0984350737537737e-05 1.4532106392749897e-05 0.0000000000000000e+00  -1.0739534460902743e-04 -4.0623302915343031e-05 0.0000000000000000e+00  -1.1734901379520984e-04 -1.1734901379359645e-04 0.0000000000000000e+00  -1.0550377502972740e-04 -2.1534340374562401e-04 0.0000000000000000e+00  -6.6582157750012076e-05 -3.3420521017337178e-04 0.0000000000000000e+00  4.5820910317180543e-06 -4.7342319473744253e-04 0.0000000000000000e+00  1.1300713692708245e-04 -6.3236873404648702e-04 0.0000000000000000e+00  2.6352456863239264e-04 -8.1028807503337843e-04 0.0000000000000000e+00  4.6073461591274081e-04 -1.0062936941976925e-03 0.0000000000000000e+00  7.0895176224222407e-04 -1.2193548904582035e-03 0.0000000000000000e+00  1.0121369767685955e-03 -1.4482878887412854e-03 0.0000000000000000e+00  1.3738115719378313e-03 -1.6917457859285427e-03 0.0000000000000000e+00  1.7969458793576862e-03 -1.9482087268459282e-03 0.0000000000000000e+00  2.2838134563274233e-03 -2.2159747610896049e-03 0.0000000000000000e+00  2.8357982539366469e-03 -2.4931518970017184e-03 0.0000000000000000e+00  3.4531379463187805e-03 -2.7776519332170387e-03 0.0000000000000000e+00  4.1345813064048286e-03 -3.0671867088670713e-03 0.0000000000000000e+00  4.8769310391602975e-03 -3.3592674670986523e-03 0.0000000000000000e+00  5.6744358810775983e-03 -3.6512080674704385e-03 0.0000000000000000e+00  6.5179872671703226e-03 -3.9401328059949867e-03 0.0000000000000000e+00  7.3940669708084670e-03 -4.2229895974507763e-03 0.0000000000000000e+00  8.2833837852979569e-03 -4.4965692375094953e-03 0.0000000000000000e+00  9.1591310797858282e-03 -4.7575313821633164e-03 0.0000000000000000e+00  9.9847952331704650e-03 -5.0024377547880456e-03 0.0000000000000000e+00  1.0711450756855602e-02 -5.2277929109089405e-03 0.0000000000000000e+00  1.1274495575181884e-02 -5.4300926576081971e-03 0.0000000000000000e+00  1.1589814504359055e-02 -5.6058799380689405e-03 0.0000000000000000e+00  1.1549415844024717e-02 -5.7518076529089581e-03 0.0000000000000000e+00  1.1016669732595687e-02 -5.8647074930138774e-03 0.0000000000000000e+00  9.8213892342707242e-03 -5.9416633857938836e-03 0.0000000000000000e+00  7.7551318926523801e-03 -5.9800875710176405e-03 0.0000000000000000e+00  4.5672470555486334e-03 -5.9777965702425238e-03 0.0000000000000000e+00  -3.7673772975992536e-05 -5.9330833518794123e-03 0.0000000000000000e+00  -6.4002098713764957e-03 -5.8447808712994327e-03 0.0000000000000000e+00  -1.4903681625245442e-02 -5.7123111780525192e-03 0.0000000000000000e+00  -2.5968349491471414e-02 -5.5357140555937091e-03 0.0000000000000000e+00  -4.0042062735857205e-02 -5.3156496985450928e-03 0.0000000000000000e+00  -5.7587686058770904e-02 -5.0533652411484881e-03 0.0000000000000000e+00  -7.9068232088246607e-02 -4.7505767379286785e-03 0.0000000000000000e+00  0.0000000000000000e+00 1.1492717181487428e-04 0.0000000000000000e+00  -6.7859993129162460e-05 1.0078587588868250e-04 0.0000000000000000e+00  -1.2994802940332785e-04 5.9212204934925233e-05 0.0000000000000000e+00  -1.8088475873542521e-04 -9.6431239026370828e-06 0.0000000000000000e+00  -2.1534340374512604e-04 -1.0550377503078935e-04 0.0000000000000000e+00  -2.2799028506465116e-04 -2.2799028506740657e-04 0.0000000000000000e+00  -2.1354460462367578e-04 -3.7660379474656385e-04 0.0000000000000000e+00  -1.6682495668215918e-04 -5.5071341609304162e-04 0.0000000000000000e+00  -8.2786734234612999e-05 -7.4954600382253053e-04 0.0000000000000000e+00  4.3439662398873615e-05 -9.7217567830761747e-04 0.0000000000000000e+00  2.1650474162134275e-04 -1.2175123994083046e-03 0.0000000000000000e+00  4.4078630893629422e-04 -1.4842896360422238e-03 0.0000000000000000e+00  7.2032237834436562e-04 -1.7710514254723263e-03 0.0000000000000000e+00  1.0587255126003137e-03 -2.0761392219480362e-03 0.0000000000000000e+00  1.4590717061965883e-03 -2.3976790074161734e-03 0.0000000000000000e+00  1.9237544484444595e-03 -2.7335692094316430e-03 0.0000000000000000e+00  2.4542913227257402e-03 -3.0814700490653449e-03 0.0000000000000000e+00  3.0510662672434759e-03 -3.4387950218515489e-03 0.0000000000000000e+00  3.7129853122902026e-03 -3.8027052929475984e-03 0.0000000000000000e+00  4.4370171427030817e-03 -4.1701078580048392e-03 0.0000000000000000e+00  5.2175822462379555e-03 -4.5376583766135667e-03 0.0000000000000000e+00  6.0457459230568817e-03 -4.9017696185306497e-03 0.0000000000000000e+00  6.9081615663993791e-03 -5.2586264653798308e-03 0.0000000000000000e+00  7.7857023291313396e-03 -5.6042083744385456e-03 0.0000000000000000e+00  8.6517131051635637e-03 -5.9343201286582159e-03 0.0000000000000000e+00  9.4698129847759840e-03 -6.2446315637100965e-03 0.0000000000000000e+00  1.0191184213307473e-02 -6.5307267759477606e-03 0.0000000000000000e+00  1.0751301401726284e-02 -6.7881630763470579e-03 0.0000000000000000e+00  1.1066089358718383e-02 -7.0125396665036560e-03 0.0000000000000000e+00  1.1027554813079437e-02 -7.1995756730731325e-03 0.0000000000000000e+00  1.0499021022669183e-02 -7.3451967740764332e-03 0.0000000000000000e+00  9.3102065342463482e-03 -7.4456291512752784e-03 0.0000000000000000e+00  7.2525260467763680e-03 -7.4974988471137342e-03 0.0000000000000000e+00  4.0751388262820530e-03 -7.4979337127539349e-03 0.0000000000000000e+00  -5.1759794793778953e-04 -7.4446639401714578e-03 0.0000000000000000e+00  -6.8665370351664685e-03 -7.3361156902756724e-03 0.0000000000000000e+00  -1.5355303988872471e-02 -7.1714906976457268e-03 0.0000000000000000e+00  -2.6404485806151748e-02 -6.9508230273141788e-03 0.0000000000000000e+00  -4.0462264248985323e-02 -6.6750015554558929e-03 0.0000000000000000e+00  -5.7991807708221557e-02 -6.3457400336210442e-03 0.0000000000000000e+00  -7.9456284093216450e-02 -5.9654632600885773e-03 0.0000000000000000e+00  0.0000000000000000e+00 1.9761042162393539e-04 0.0000000000000000e+00  -9.7507385776862915e-05 1.8072658841826667e-04 0.0000000000000000e+00  -1.8931521257249418e-04 1.3093343998244852e-04 0.0000000000000000e+00  -2.6999806608195347e-04 4.8392608257081225e-05 0.0000000000000000e+00  -3.3420521017195521e-04 -6.6582157750739982e-05 0.0000000000000000e+00  -3.7660379474611992e-04 -2.1354460462590067e-04 0.0000000000000000e+00  -3.9190810860054918e-04 -3.9190810860114723e-04 0.0000000000000000e+00  -3.7492007231850085e-04 -6.0093262610119865e-04 0.0000000000000000e+00  -3.2056548436450763e-04 -8.3971210452730700e-04 0.0000000000000000e+00  -2.2393132495241133e-04 -1.1071613079821415e-03 0.0000000000000000e+00  -8.0308768954833135e-05 -1.4020015369477401e-03 0.0000000000000000e+00  1.1475428695766948e-04 -1.7227452721188189e-03 0.0000000000000000e+00  3.6538708482256174e-04 -2.0676800420245307e-03 0.0000000000000000e+00  6.7531104924693406e-04 -2.4348519556856036e-03 0.0000000000000000e+00  1.0477290376479785e-03 -2.8220494424644137e-03 0.0000000000000000e+00  1.4851793486721149e-03 -3.2267878349489733e-03 0.0000000000000000e+00  1.9893417587586197e-03 -3.6462955262023073e-03 0.0000000000000000e+00  2.5607786255919026e-03 -4.0775025302164803e-03 0.0000000000000000e+00  3.1985887890558949e-03 -4.5170323708078235e-03 0.0000000000000000e+00  3.8999455416248055e-03 -4.9611983125155456e-03 0.0000000000000000e+00  4.6594823665343432e-03 -5.4060050207283454e-03 0.0000000000000000e+00  5.4684816796790083e-03 -5.8471567880173355e-03 0.0000000000000000e+00  6.3138129789798688e-03 -6.2800734810007832e-03 0.0000000000000000e+00  7.1765585527993397e-03 -6.6999153383173532e-03 0.0000000000000000e+00  8.0302587669989541e-03 -7.1016176779808678e-03 0.0000000000000000e+00  8.8387072422036021e-03 -7.4799364474001226e-03 0.0000000000000000e+00  9.5532321703817868e-03 -7.8295053698676804e-03 0.0000000000000000e+00  1.0109417805019921e-02 -8.1449052089264378e-03 0.0000000000000000e+00  1.0423254838048545e-02 -8.4207453872305361e-03 0.0000000000000000e+00  1.0386765315309826e-02 -8.6517578535217909e-03 0.0000000000000000e+00  9.8632314830090547e-03 -8.8329026668224724e-03 0.0000000000000000e+00  8.6822702072875766e-03 -8.9594842095880398e-03 0.0000000000000000e+00  6.6351312535885458e-03 -9.0272761652372586e-03 0.0000000000000000e+00  3.4707451603691263e-03 -9.0326522902458538e-03 0.00000000000