<?xml version="1.0"?>
<VTKFile type="UnstructuredGrid"  version="0.1"  >
<UnstructuredGrid>
<Piece  NumberOfPoints="1681" NumberOfCells="3200">
<Points>
<DataArray  type="Float64"  NumberOfComponents="3"  format="ascii">0 0 0  0.5 0 0  1 0 0  1.5 0 0  2 0 0  2.5 0 0  3 0 0  3.5 0 0  4 0 0  4.5 0 0  5 0 0  5.5 0 0  6 0 0  6.5 0 0  7 0 0  7.5 0 0  8 0 0  8.5 0 0  9 0 0  9.5 0 0  10 0 0  10.5 0 0  11 0 0  11.5 0 0  12 0 0  12.5 0 0  13 0 0  13.5 0 0  14 0 0  14.5 0 0  15 0 0  15.5 0 0  16 0 0  16.5 0 0  17 0 0  17.5 0 0  18 0 0  18.5 0 0  19 0 0  19.5 0 0  20 0 0  0 0.5 0  0.5 0.5 0  1 0.5 0  1.5 0.5 0  2 0.5 0  2.5 0.5 0  3 0.5 0  3.5 0.5 0  4 0.5 0  4.5 0.5 0  5 0.5 0  5.5 0.5 0  6 0.5 0  6.5 0.5 0  7 0.5 0  7.5 0.5 0  8 0.5 0  8.5 0.5 0  9 0.5 0  9.5 0.5 0  10 0.5 0  10.5 0.5 0  11 0.5 0  11.5 0.5 0  12 0.5 0  12.5 0.5 0  13 0.5 0  13.5 0.5 0  14 0.5 0  14.5 0.5 0  15 0.5 0  15.5 0.5 0  16 0.5 0  16.5 0.5 0  17 0.5 0  17.5 0.5 0  18 0.5 0  18.5 0.5 0  19 0.5 0  19.5 0.5 0  20 0.5 0  0 1 0  0.5 1 0  1 1 0  1.5 1 0  2 1 0  2.5 1 0  3 1 0  3.5 1 0  4 1 0  4.5 1 0  5 1 0  5.5 1 0  6 1 0  6.5 1 0  7 1 0  7.5 1 0  8 1 0  8.5 1 0  9 1 0  9.5 1 0  10 1 0  10.5 1 0  11 1 0  11.5 1 0  12 1 0  12.5 1 0  13 1 0  13.5 1 0  14 1 0  14.5 1 0  15 1 0  15.5 1 0  16 1 0  16.5 1 0  17 1 0  17.5 1 0  18 1 0  18.5 1 0  19 1 0  19.5 1 0  20 1 0  0 1.5 0  0.5 1.5 0  1 1.5 0  1.5 1.5 0  2 1.5 0  2.5 1.5 0  3 1.5 0  3.5 1.5 0  4 1.5 0  4.5 1.5 0  5 1.5 0  5.5 1.5 0  6 1.5 0  6.5 1.5 0  7 1.5 0  7.5 1.5 0  8 1.5 0  8.5 1.5 0  9 1.5 0  9.5 1.5 0  10 1.5 0  10.5 1.5 0  11 1.5 0  11.5 1.5 0  12 1.5 0  12.5 1.5 0  13 1.5 0  13.5 1.5 0  14 1.5 0  14.5 1.5 0  15 1.5 0  15.5 1.5 0  16 1.5 0  16.5 1.5 0  17 1.5 0  17.5 1.5 0  18 1.5 0  18.5 1.5 0  19 1.5 0  19.5 1.5 0  20 1.5 0  0 2 0  0.5 2 0  1 2 0  1.5 2 0  2 2 0  2.5 2 0  3 2 0  3.5 2 0  4 2 0  4.5 2 0  5 2 0  5.5 2 0  6 2 0  6.5 2 0  7 2 0  7.5 2 0  8 2 0  8.5 2 0  9 2 0  9.5 2 0  10 2 0  10.5 2 0  11 2 0  11.5 2 0  12 2 0  12.5 2 0  13 2 0  13.5 2 0  14 2 0  14.5 2 0  15 2 0  15.5 2 0  16 2 0  16.5 2 0  17 2 0  17.5 2 0  18 2 0  18.5 2 0  19 2 0  19.5 2 0  20 2 0  0 2.5 0  0.5 2.5 0  1 2.5 0  1.5 2.5 0  2 2.5 0  2.5 2.5 0  3 2.5 0  3.5 2.5 0  4 2.5 0  4.5 2.5 0  5 2.5 0  5.5 2.5 0  6 2.5 0  6.5 2.5 0  7 2.5 0  7.5 2.5 0  8 2.5 0  8.5 2.5 0  9 2.5 0  9.5 2.5 0  10 2.5 0  10.5 2.5 0  11 2.5 0  11.5 2.5 0  12 2.5 0  12.5 2.5 0  13 2.5 0  13.5 2.5 0  14 2.5 0  14.5 2.5 0  15 2.5 0  15.5 2.5 0  16 2.5 0  16.5 2.5 0  17 2.5 0  17.5 2.5 0  18 2.5 0  18.5 2.5 0  19 2.5 0  19.5 2.5 0  20 2.5 0  0 3 0  0.5 3 0  1 3 0  1.5 3 0  2 3 0  2.5 3 0  3 3 0  3.5 3 0  4 3 0  4.5 3 0  5 3 0  5.5 3 0  6 3 0  6.5 3 0  7 3 0  7.5 3 0  8 3 0  8.5 3 0  9 3 0  9.5 3 0  10 3 0  10.5 3 0  11 3 0  11.5 3 0  12 3 0  12.5 3 0  13 3 0  13.5 3 0  14 3 0  14.5 3 0  15 3 0  15.5 3 0  16 3 0  16.5 3 0  17 3 0  17.5 3 0  18 3 0  18.5 3 0  19 3 0  19.5 3 0  20 3 0  0 3.5 0  0.5 3.5 0  1 3.5 0  1.5 3.5 0  2 3.5 0  2.5 3.5 0  3 3.5 0  3.5 3.5 0  4 3.5 0  4.5 3.5 0  5 3.5 0  5.5 3.5 0  6 3.5 0  6.5 3.5 0  7 3.5 0  7.5 3.5 0  8 3.5 0  8.5 3.5 0  9 3.5 0  9.5 3.5 0  10 3.5 0  10.5 3.5 0  11 3.5 0  11.5 3.5 0  12 3.5 0  12.5 3.5 0  13 3.5 0  13.5 3.5 0  14 3.5 0  14.5 3.5 0  15 3.5 0  15.5 3.5 0  16 3.5 0  16.5 3.5 0  17 3.5 0  17.5 3.5 0  18 3.5 0  18.5 3.5 0  19 3.5 0  19.5 3.5 0  20 3.5 0  0 4 0  0.5 4 0  1 4 0  1.5 4 0  2 4 0  2.5 4 0  3 4 0  3.5 4 0  4 4 0  4.5 4 0  5 4 0  5.5 4 0  6 4 0  6.5 4 0  7 4 0  7.5 4 0  8 4 0  8.5 4 0  9 4 0  9.5 4 0  10 4 0  10.5 4 0  11 4 0  11.5 4 0  12 4 0  12.5 4 0  13 4 0  13.5 4 0  14 4 0  14.5 4 0  15 4 0  15.5 4 0  16 4 0  16.5 4 0  17 4 0  17.5 4 0  18 4 0  18.5 4 0  19 4 0  19.5 4 0  20 4 0  0 4.5 0  0.5 4.5 0  1 4.5 0  1.5 4.5 0  2 4.5 0  2.5 4.5 0  3 4.5 0  3.5 4.5 0  4 4.5 0  4.5 4.5 0  5 4.5 0  5.5 4.5 0  6 4.5 0  6.5 4.5 0  7 4.5 0  7.5 4.5 0  8 4.5 0  8.5 4.5 0  9 4.5 0  9.5 4.5 0  10 4.5 0  10.5 4.5 0  11 4.5 0  11.5 4.5 0  12 4.5 0  12.5 4.5 0  13 4.5 0  13.5 4.5 0  14 4.5 0  14.5 4.5 0  15 4.5 0  15.5 4.5 0  16 4.5 0  16.5 4.5 0  17 4.5 0  17.5 4.5 0  18 4.5 0  18.5 4.5 0  19 4.5 0  19.5 4.5 0  20 4.5 0  0 5 0  0.5 5 0  1 5 0  1.5 5 0  2 5 0  2.5 5 0  3 5 0  3.5 5 0  4 5 0  4.5 5 0  5 5 0  5.5 5 0  6 5 0  6.5 5 0  7 5 0  7.5 5 0  8 5 0  8.5 5 0  9 5 0  9.5 5 0  10 5 0  10.5 5 0  11 5 0  11.5 5 0  12 5 0  12.5 5 0  13 5 0  13.5 5 0  14 5 0  14.5 5 0  15 5 0  15.5 5 0  16 5 0  16.5 5 0  17 5 0  17.5 5 0  18 5 0  18.5 5 0  19 5 0  19.5 5 0  20 5 0  0 5.5 0  0.5 5.5 0  1 5.5 0  1.5 5.5 0  2 5.5 0  2.5 5.5 0  3 5.5 0  3.5 5.5 0  4 5.5 0  4.5 5.5 0  5 5.5 0  5.5 5.5 0  6 5.5 0  6.5 5.5 0  7 5.5 0  7.5 5.5 0  8 5.5 0  8.5 5.5 0  9 5.5 0  9.5 5.5 0  10 5.5 0  10.5 5.5 0  11 5.5 0  11.5 5.5 0  12 5.5 0  12.5 5.5 0  13 5.5 0  13.5 5.5 0  14 5.5 0  14.5 5.5 0  15 5.5 0  15.5 5.5 0  16 5.5 0  16.5 5.5 0  17 5.5 0  17.5 5.5 0  18 5.5 0  18.5 5.5 0  19 5.5 0  19.5 5.5 0  20 5.5 0  0 6 0  0.5 6 0  1 6 0  1.5 6 0  2 6 0  2.5 6 0  3 6 0  3.5 6 0  4 6 0  4.5 6 0  5 6 0  5.5 6 0  6 6 0  6.5 6 0  7 6 0  7.5 6 0  8 6 0  8.5 6 0  9 6 0  9.5 6 0  10 6 0  10.5 6 0  11 6 0  11.5 6 0  12 6 0  12.5 6 0  13 6 0  13.5 6 0  14 6 0  14.5 6 0  15 6 0  15.5 6 0  16 6 0  16.5 6 0  17 6 0  17.5 6 0  18 6 0  18.5 6 0  19 6 0  19.5 6 0  20 6 0  0 6.5 0  0.5 6.5 0  1 6.5 0  1.5 6.5 0  2 6.5 0  2.5 6.5 0  3 6.5 0  3.5 6.5 0  4 6.5 0  4.5 6.5 0  5 6.5 0  5.5 6.5 0  6 6.5 0  6.5 6.5 0  7 6.5 0  7.5 6.5 0  8 6.5 0  8.5 6.5 0  9 6.5 0  9.5 6.5 0  10 6.5 0  10.5 6.5 0  11 6.5 0  11.5 6.5 0  12 6.5 0  12.5 6.5 0  13 6.5 0  13.5 6.5 0  14 6.5 0  14.5 6.5 0  15 6.5 0  15.5 6.5 0  16 6.5 0  16.5 6.5 0  17 6.5 0  17.5 6.5 0  18 6.5 0  18.5 6.5 0  19 6.5 0  19.5 6.5 0  20 6.5 0  0 7 0  0.5 7 0  1 7 0  1.5 7 0  2 7 0  2.5 7 0  3 7 0  3.5 7 0  4 7 0  4.5 7 0  5 7 0  5.5 7 0  6 7 0  6.5 7 0  7 7 0  7.5 7 0  8 7 0  8.5 7 0  9 7 0  9.5 7 0  10 7 0  10.5 7 0  11 7 0  11.5 7 0  12 7 0  12.5 7 0  13 7 0  13.5 7 0  14 7 0  14.5 7 0  15 7 0  15.5 7 0  16 7 0  16.5 7 0  17 7 0  17.5 7 0  18 7 0  18.5 7 0  19 7 0  19.5 7 0  20 7 0  0 7.5 0  0.5 7.5 0  1 7.5 0  1.5 7.5 0  2 7.5 0  2.5 7.5 0  3 7.5 0  3.5 7.5 0  4 7.5 0  4.5 7.5 0  5 7.5 0  5.5 7.5 0  6 7.5 0  6.5 7.5 0  7 7.5 0  7.5 7.5 0  8 7.5 0  8.5 7.5 0  9 7.5 0  9.5 7.5 0  10 7.5 0  10.5 7.5 0  11 7.5 0  11.5 7.5 0  12 7.5 0  12.5 7.5 0  13 7.5 0  13.5 7.5 0  14 7.5 0  14.5 7.5 0  15 7.5 0  15.5 7.5 0  16 7.5 0  16.5 7.5 0  17 7.5 0  17.5 7.5 0  18 7.5 0  18.5 7.5 0  19 7.5 0  19.5 7.5 0  20 7.5 0  0 8 0  0.5 8 0  1 8 0  1.5 8 0  2 8 0  2.5 8 0  3 8 0  3.5 8 0  4 8 0  4.5 8 0  5 8 0  5.5 8 0  6 8 0  6.5 8 0  7 8 0  7.5 8 0  8 8 0  8.5 8 0  9 8 0  9.5 8 0  10 8 0  10.5 8 0  11 8 0  11.5 8 0  12 8 0  12.5 8 0  13 8 0  13.5 8 0  14 8 0  14.5 8 0  15 8 0  15.5 8 0  16 8 0  16.5 8 0  17 8 0  17.5 8 0  18 8 0  18.5 8 0  19 8 0  19.5 8 0  20 8 0  0 8.5 0  0.5 8.5 0  1 8.5 0  1.5 8.5 0  2 8.5 0  2.5 8.5 0  3 8.5 0  3.5 8.5 0  4 8.5 0  4.5 8.5 0  5 8.5 0  5.5 8.5 0  6 8.5 0  6.5 8.5 0  7 8.5 0  7.5 8.5 0  8 8.5 0  8.5 8.5 0  9 8.5 0  9.5 8.5 0  10 8.5 0  10.5 8.5 0  11 8.5 0  11.5 8.5 0  12 8.5 0  12.5 8.5 0  13 8.5 0  13.5 8.5 0  14 8.5 0  14.5 8.5 0  15 8.5 0  15.5 8.5 0  16 8.5 0  16.5 8.5 0  17 8.5 0  17.5 8.5 0  18 8.5 0  18.5 8.5 0  19 8.5 0  19.5 8.5 0  20 8.5 0  0 9 0  0.5 9 0  1 9 0  1.5 9 0  2 9 0  2.5 9 0  3 9 0  3.5 9 0  4 9 0  4.5 9 0  5 9 0  5.5 9 0  6 9 0  6.5 9 0  7 9 0  7.5 9 0  8 9 0  8.5 9 0  9 9 0  9.5 9 0  10 9 0  10.5 9 0  11 9 0  11.5 9 0  12 9 0  12.5 9 0  13 9 0  13.5 9 0  14 9 0  14.5 9 0  15 9 0  15.5 9 0  16 9 0  16.5 9 0  17 9 0  17.5 9 0  18 9 0  18.5 9 0  19 9 0  19.5 9 0  20 9 0  0 9.5 0  0.5 9.5 0  1 9.5 0  1.5 9.5 0  2 9.5 0  2.5 9.5 0  3 9.5 0  3.5 9.5 0  4 9.5 0  4.5 9.5 0  5 9.5 0  5.5 9.5 0  6 9.5 0  6.5 9.5 0  7 9.5 0  7.5 9.5 0  8 9.5 0  8.5 9.5 0  9 9.5 0  9.5 9.5 0  10 9.5 0  10.5 9.5 0  11 9.5 0  11.5 9.5 0  12 9.5 0  12.5 9.5 0  13 9.5 0  13.5 9.5 0  14 9.5 0  14.5 9.5 0  15 9.5 0  15.5 9.5 0  16 9.5 0  16.5 9.5 0  17 9.5 0  17.5 9.5 0  18 9.5 0  18.5 9.5 0  19 9.5 0  19.5 9.5 0  20 9.5 0  0 10 0  0.5 10 0  1 10 0  1.5 10 0  2 10 0  2.5 10 0  3 10 0  3.5 10 0  4 10 0  4.5 10 0  5 10 0  5.5 10 0  6 10 0  6.5 10 0  7 10 0  7.5 10 0  8 10 0  8.5 10 0  9 10 0  9.5 10 0  10 10 0  10.5 10 0  11 10 0  11.5 10 0  12 10 0  12.5 10 0  13 10 0  13.5 10 0  14 10 0  14.5 10 0  15 10 0  15.5 10 0  16 10 0  16.5 10 0  17 10 0  17.5 10 0  18 10 0  18.5 10 0  19 10 0  19.5 10 0  20 10 0  0 10.5 0  0.5 10.5 0  1 10.5 0  1.5 10.5 0  2 10.5 0  2.5 10.5 0  3 10.5 0  3.5 10.5 0  4 10.5 0  4.5 10.5 0  5 10.5 0  5.5 10.5 0  6 10.5 0  6.5 10.5 0  7 10.5 0  7.5 10.5 0  8 10.5 0  8.5 10.5 0  9 10.5 0  9.5 10.5 0  10 10.5 0  10.5 10.5 0  11 10.5 0  11.5 10.5 0  12 10.5 0  12.5 10.5 0  13 10.5 0  13.5 10.5 0  14 10.5 0  14.5 10.5 0  15 10.5 0  15.5 10.5 0  16 10.5 0  16.5 10.5 0  17 10.5 0  17.5 10.5 0  18 10.5 0  18.5 10.5 0  19 10.5 0  19.5 10.5 0  20 10.5 0  0 11 0  0.5 11 0  1 11 0  1.5 11 0  2 11 0  2.5 11 0  3 11 0  3.5 11 0  4 11 0  4.5 11 0  5 11 0  5.5 11 0  6 11 0  6.5 11 0  7 11 0  7.5 11 0  8 11 0  8.5 11 0  9 11 0  9.5 11 0  10 11 0  10.5 11 0  11 11 0  11.5 11 0  12 11 0  12.5 11 0  13 11 0  13.5 11 0  14 11 0  14.5 11 0  15 11 0  15.5 11 0  16 11 0  16.5 11 0  17 11 0  17.5 11 0  18 11 0  18.5 11 0  19 11 0  19.5 11 0  20 11 0  0 11.5 0  0.5 11.5 0  1 11.5 0  1.5 11.5 0  2 11.5 0  2.5 11.5 0  3 11.5 0  3.5 11.5 0  4 11.5 0  4.5 11.5 0  5 11.5 0  5.5 11.5 0  6 11.5 0  6.5 11.5 0  7 11.5 0  7.5 11.5 0  8 11.5 0  8.5 11.5 0  9 11.5 0  9.5 11.5 0  10 11.5 0  10.5 11.5 0  11 11.5 0  11.5 11.5 0  12 11.5 0  12.5 11.5 0  13 11.5 0  13.5 11.5 0  14 11.5 0  14.5 11.5 0  15 11.5 0  15.5 11.5 0  16 11.5 0  16.5 11.5 0  17 11.5 0  17.5 11.5 0  18 11.5 0  18.5 11.5 0  19 11.5 0  19.5 11.5 0  20 11.5 0  0 12 0  0.5 12 0  1 12 0  1.5 12 0  2 12 0  2.5 12 0  3 12 0  3.5 12 0  4 12 0  4.5 12 0  5 12 0  5.5 12 0  6 12 0  6.5 12 0  7 12 0  7.5 12 0  8 12 0  8.5 12 0  9 12 0  9.5 12 0  10 12 0  10.5 12 0  11 12 0  11.5 12 0  12 12 0  12.5 12 0  13 12 0  13.5 12 0  14 12 0  14.5 12 0  
[...]
<PointData  Vectors="f_5623-0"> 
<DataArray  type="Float64"  Name="f_5623-0"  NumberOfComponents="3" format="ascii">0.0000000000000000e+00 0.0000000000000000e+00 0.0000000000000000e+00  3.7254605793080009e-07 0.0000000000000000e+00 0.0000000000000000e+00  1.9501543057546023e-06 0.0000000000000000e+00 0.0000000000000000e+00  6.2427671234031344e-06 0.0000000000000000e+00 0.0000000000000000e+00  1.4591838949185655e-05 0.0000000000000000e+00 0.0000000000000000e+00  2.8315849219068909e-05 0.0000000000000000e+00 0.0000000000000000e+00  4.8711830128197073e-05 0.0000000000000000e+00 0.0000000000000000e+00  7.7047786790069127e-05 0.0000000000000000e+00 0.0000000000000000e+00  1.1455495714383778e-04 0.0000000000000000e+00 0.0000000000000000e+00  1.6241992831740243e-04 0.0000000000000000e+00 0.0000000000000000e+00  2.2177633845625269e-04 0.0000000000000000e+00 0.0000000000000000e+00  2.9369601352727639e-04 0.0000000000000000e+00 0.0000000000000000e+00  3.7917944562167205e-04 0.0000000000000000e+00 0.0000000000000000e+00  4.7914553537674873e-04 0.0000000000000000e+00 0.0000000000000000e+00  5.9442050917755788e-04 0.0000000000000000e+00 0.0000000000000000e+00  7.2572587460299591e-04 0.0000000000000000e+00 0.0000000000000000e+00  8.7366517117932639e-04 0.0000000000000000e+00 0.0000000000000000e+00  1.0387090634639538e-03 0.0000000000000000e+00 0.0000000000000000e+00  1.2211779327380992e-03 0.0000000000000000e+00 0.0000000000000000e+00  1.4212204220509516e-03 0.0000000000000000e+00 0.0000000000000000e+00  1.6387851613216022e-03 0.0000000000000000e+00 0.0000000000000000e+00  1.8735807929111485e-03 0.0000000000000000e+00 0.0000000000000000e+00  2.1250158733561921e-03 0.0000000000000000e+00 0.0000000000000000e+00  2.3921043723308809e-03 0.0000000000000000e+00 0.0000000000000000e+00  2.6733130121547755e-03 0.0000000000000000e+00 0.0000000000000000e+00  2.9663116893843436e-03 0.0000000000000000e+00 0.0000000000000000e+00  3.2675650859864936e-03 0.0000000000000000e+00 0.0000000000000000e+00  3.5716690058796132e-03 0.0000000000000000e+00 0.0000000000000000e+00  3.8702852945510261e-03 0.0000000000000000e+00 0.0000000000000000e+00  4.1504613863600475e-03 0.0000000000000000e+00 0.0000000000000000e+00  4.3920343930801825e-03 0.0000000000000000e+00 0.0000000000000000e+00  4.5637219598222310e-03 0.0000000000000000e+00 0.0000000000000000e+00  4.6174131966542024e-03 0.0000000000000000e+00 0.0000000000000000e+00  4.4801357527458324e-03 0.0000000000000000e+00 0.0000000000000000e+00  4.0432640184215832e-03 0.0000000000000000e+00 0.0000000000000000e+00  3.1488562044608959e-03 0.0000000000000000e+00 0.0000000000000000e+00  1.5736845941451845e-03 0.0000000000000000e+00 0.0000000000000000e+00  -9.8737927239343510e-04 0.0000000000000000e+00 0.0000000000000000e+00  -4.9355484071550854e-03 0.0000000000000000e+00 0.0000000000000000e+00  -1.0775448062256618e-02 0.0000000000000000e+00 0.0000000000000000e+00  -1.9110533038888072e-02 0.0000000000000000e+00 0.0000000000000000e+00  0.0000000000000000e+00 3.7254605679198319e-07 0.0000000000000000e+00  -4.6648405294569504e-07 -4.6648405328469377e-07 0.0000000000000000e+00  4.7902527474388019e-07 -2.5709019864549423e-06 0.0000000000000000e+00  4.1131055570641833e-06 -5.9659564628875457e-06 0.0000000000000000e+00  1.1789971318617613e-05 -1.0676621088492203e-05 0.0000000000000000e+00  2.4838245752887294e-05 -1.6696487839412801e-05 0.0000000000000000e+00  4.4558643843307928e-05 -2.4002399150834897e-05 0.0000000000000000e+00  7.2220755466504224e-05 -3.2561250790157069e-05 0.0000000000000000e+00  1.0905699102789165e-04 -4.2331869451269185e-05 0.0000000000000000e+00  1.5625524042521606e-04 -5.3265140427799372e-05 0.0000000000000000e+00  2.1495075400516784e-04 -6.5303580397953244e-05 0.0000000000000000e+00  2.8621734511116969e-04 -7.8380736612513002e-05 0.0000000000000000e+00  3.7105789574159992e-04 -9.2420535507924977e-05 0.0000000000000000e+00  4.7039410992624309e-04 -1.0733662975518268e-04 0.0000000000000000e+00  5.8505543134520686e-04 -1.2303177366094546e-04 0.0000000000000000e+00  7.1576698965990801e-04 -1.3939725365550630e-04 0.0000000000000000e+00  8.6313633220379217e-04 -1.5631240105458570e-04 0.0000000000000000e+00  1.0276384873771770e-03 -1.7364421533178472e-04 0.0000000000000000e+00  1.2095985157574000e-03 -1.9124712648190611e-04 0.0000000000000000e+00  1.4091700035354809e-03 -2.0896292404714014e-04 0.0000000000000000e+00  1.6263067248431986e-03 -2.2662087877764632e-04 0.0000000000000000e+00  1.8607225923414354e-03 -2.4403808034119799e-04 0.0000000000000000e+00  2.1118314679341829e-03 -2.6102001441379366e-04 0.0000000000000000e+00  2.3786525450826138e-03 -2.7736140680545765e-04 0.0000000000000000e+00  2.6596575258521550e-03 -2.9284737851697248e-04 0.0000000000000000e+00  2.9525207964808363e-03 -3.0725499168359670e-04 0.0000000000000000e+00  3.2537106456158519e-03 -3.2035533529692063e-04 0.0000000000000000e+00  3.5578249656692154e-03 -3.3191641286761556e-04 0.0000000000000000e+00  3.8565251699244517e-03 -3.4170726139540647e-04 0.0000000000000000e+00  4.1368542414762068e-03 -3.4950394075377439e-04 0.0000000000000000e+00  4.3786387705800978e-03 -3.5509823859625488e-04 0.0000000000000000e+00  4.5505773799977851e-03 -3.5831001935923403e-04 0.0000000000000000e+00  4.6045295210768514e-03 -3.5900388418828953e-04 0.0000000000000000e+00  4.4674822371806953e-03 -3.5710985169780385e-04 0.0000000000000000e+00  4.0307625054085130e-03 -3.5264565365165587e-04 0.0000000000000000e+00  3.1363861900147580e-03 -3.4573443727247088e-04 0.0000000000000000e+00  1.5611095016414196e-03 -3.3660542314662637e-04 0.0000000000000000e+00  -1.0001624226723170e-03 -3.2555390653144634e-04 0.0000000000000000e+00  -4.9485728039298429e-03 -3.1280963906376333e-04 0.0000000000000000e+00  -1.0788877173322489e-02 -2.9817131187439888e-04 0.0000000000000000e+00  -1.9126186308827096e-02 -2.7992482908737219e-04 0.0000000000000000e+00  0.0000000000000000e+00 1.9501543061985522e-06 0.0000000000000000e+00  -2.5709019871334182e-06 4.7902527649059882e-07 0.0000000000000000e+00  -3.6701298705672778e-06 -3.6701298700957274e-06 0.0000000000000000e+00  -2.0620835254111324e-06 -1.0474014290787148e-05 0.0000000000000000e+00  3.5891792082796397e-06 -1.9919996205639418e-05 0.0000000000000000e+00  1.4610029635569263e-05 -3.1978832458625658e-05 0.0000000000000000e+00  3.2303528552693087e-05 -4.6603971976212645e-05 0.0000000000000000e+00  5.7942435801609848e-05 -6.3731988576851405e-05 0.0000000000000000e+00  9.2762698892099118e-05 -8.3283030390532940e-05 0.0000000000000000e+00  1.3795632556214956e-04 -1.0516070550397989e-04 0.0000000000000000e+00  1.9466351007196405e-04 -1.2925143150117576e-04 0.0000000000000000e+00  2.6396401307437854e-04 -1.5542343933909358e-04 0.0000000000000000e+00  3.4686778125790765e-04 -1.8352559640960717e-04 0.0000000000000000e+00  4.4430476581698819e-04 -2.1338616530177317e-04 0.0000000000000000e+00  5.5711386529383455e-04 -2.4481158344284048e-04 0.0000000000000000e+00  6.8603086071139594e-04 -2.7758533483759152e-04 0.0000000000000000e+00  8.3167510011228959e-04 -3.1146698013794253e-04 0.0000000000000000e+00  9.9453447805077349e-04 -3.4619141086648410e-04 0.0000000000000000e+00  1.1749478649055423e-03 -3.8146839429092515e-04 0.0000000000000000e+00  1.3730834396044969e-03 -4.1698247572316208e-04 0.0000000000000000e+00  1.5889101507825874e-03 -4.5239330487093225e-04 0.0000000000000000e+00  1.8221574217015949e-03 -4.8733645314975182e-04 0.0000000000000000e+00  2.0722546610369196e-03 -5.2142479267517218e-04 0.0000000000000000e+00  2.3382362691461139e-03 -5.5425051994931272e-04 0.0000000000000000e+00  2.6185883202311999e-03 -5.8538793621534942e-04 0.0000000000000000e+00  2.9109980485771529e-03 -6.1439715286987565e-04 0.0000000000000000e+00  3.2119440625192420e-03 -6.4082898649461741e-04 0.0000000000000000e+00  3.5160305542412508e-03 -6.6423145151596962e-04 0.0000000000000000e+00  3.8149190262969515e-03 -6.8415844368156580e-04 0.0000000000000000e+00  4.0956432527692920e-03 -7.0018139335686490e-04 0.0000000000000000e+00  4.3380072728031634e-03 -7.1190475536318592e-04 0.0000000000000000e+00  4.5106691256744111e-03 -7.1898599961273872e-04 0.0000000000000000e+00  4.5654253232603383e-03 -7.2115997530732576e-04 0.0000000000000000e+00  4.4291757315105974e-03 -7.1826575061565432e-04 0.0000000000000000e+00  3.9931397563001637e-03 -7.1027086359224409e-04 0.0000000000000000e+00  3.0992189359293053e-03 -6.9728295257887832e-04 0.0000000000000000e+00  1.5240756475503668e-03 -6.7953125297413202e-04 0.0000000000000000e+00  -1.0374135906646054e-03 -6.5728812286282594e-04 0.0000000000000000e+00  -4.9862783524541746e-03 -6.3067696772178524e-04 0.0000000000000000e+00  -1.0826821016598041e-02 -5.9926639516243152e-04 0.0000000000000000e+00  -1.9162500856825644e-02 -5.6129782549107566e-04 0.0000000000000000e+00  0.0000000000000000e+00 6.2427671267089083e-06 0.0000000000000000e+00  -5.9659564637033773e-06 4.1131055584960916e-06 0.0000000000000000e+00  -1.0474014290111954e-05 -2.0620835275937351e-06 0.0000000000000000e+00  -1.2252827041501439e-05 -1.2252827042457219e-05 0.0000000000000000e+00  -9.9817258749244866e-06 -2.6423308935271263e-05 0.0000000000000000e+00  -2.3380172546577219e-06 -4.4520775897031880e-05 0.0000000000000000e+00  1.1981912867496774e-05 -6.6471257428040901e-05 0.0000000000000000e+00  3.4253773858996637e-05 -9.2178818338652495e-05 0.0000000000000000e+00  6.5718223016375776e-05 -1.2152471870298296e-04 0.0000000000000000e+00  1.0757358069473275e-04 -1.5436621097353987e-04 0.0000000000000000e+00  1.6096801167345378e-04 -1.9053505480237431e-04 0.0000000000000000e+00  2.2699102565297330e-04 -2.2983581918855847e-04 0.0000000000000000e+00  3.0666421421392395e-04 -2.7204404654276784e-04 0.0000000000000000e+00  4.0093115325582539e-04 -3.1690436347822583e-04 0.0000000000000000e+00  5.1064638251199031e-04 -3.6412862999594421e-04 0.0000000000000000e+00  6.3656332224555233e-04 -4.1339422320282111e-04 0.0000000000000000e+00  7.7932087832226237e-04 -4.6434255604619105e-04 0.0000000000000000e+00  9.3942827593949420e-04 -5.1657793617457411e-04 0.0000000000000000e+00  1.1172472719484555e-03 -5.6966687456202645e-04 0.0000000000000000e+00  1.3129701942634444e-03 -6.2313795775244978e-04 0.0000000000000000e+00  1.5265910271095593e-03 -6.7648240109487937e-04 0.0000000000000000e+00  1.7578646476097259e-03 -7.2915540506442839e-04 0.0000000000000000e+00  2.0062457582907603e-03 -7.8057844487811393e-04 0.0000000000000000e+00  2.2707931731396733e-03 -8.3014264038826387e-04 0.0000000000000000e+00  2.5500155819107133e-03 -8.7721338534074256e-04 0.0000000000000000e+00  2.8416198311982557e-03 -9.2113647079972876e-04 0.0000000000000000e+00  3.1420995138791998e-03 -9.6124602286497729e-04 0.0000000000000000e+00  3.4460669642946010e-03 -9.9687468736582726e-04 0.0000000000000000e+00  3.7451820001886027e-03 -1.0273666110619064e-03 0.0000000000000000e+00  4.0264630205602394e-03 -1.0520938281153905e-03 0.0000000000000000e+00  4.2696803783012433e-03 -1.0704765415869553e-03 0.0000000000000000e+00  4.4434353445895209e-03 -1.0820072962191721e-03 0.0000000000000000e+00  4.4994410923691894e-03 -1.0862779112456571e-03 0.0000000000000000e+00  4.3644879433709588e-03 -1.0830060120241747e-03 0.0000000000000000e+00  3.9296675863090417e-03 -1.0720548938622312e-03 0.0000000000000000e+00  3.0367560929545944e-03 -1.0534362729353638e-03 0.0000000000000000e+00  1.4623305022599831e-03 -1.0272803184664507e-03 0.0000000000000000e+00  -1.0987167049874428e-03 -9.9375119597969294e-04 0.0000000000000000e+00  -5.0472027299915600e-03 -9.5288003661331429e-04 0.0000000000000000e+00  -1.0886866854082394e-02 -9.0428962359264341e-04 0.0000000000000000e+00  -1.9219991528553994e-02 -8.4684179705223821e-04 0.0000000000000000e+00  0.0000000000000000e+00 1.4591838951540049e-05 0.0000000000000000e+00  -1.0676621087311753e-05 1.1789971318133747e-05 0.0000000000000000e+00  -1.9919996203599448e-05 3.5891792060170826e-06 0.0000000000000000e+00  -2.6423308934548856e-05 -9.9817258740035195e-06 0.0000000000000000e+00  -2.8870667633918212e-05 -2.8870667633336575e-05 0.0000000000000000e+00  -2.5941929724388268e-05 -5.3003955737417647e-05 0.0000000000000000e+00  -1.6332429482567832e-05 -8.2281992307688947e-05 0.0000000000000000e+00  1.2371582077795336e-06 -1.1657751486979482e-04 0.0000000000000000e+00  2.8013381109584525e-05 -1.5573399361677403e-04 0.0000000000000000e+00  6.5202766903964531e-05 -1.9956371986991505e-04 0.0000000000000000e+00  1.1396413668975687e-04 -2.4784557710840816e-04 0.0000000000000000e+00  1.7540025569104398e-04 -3.0032258036505295e-04 0.0000000000000000e+00  2.5054870532347916e-04 -3.5669927933746357e-04 0.0000000000000000e+00  3.4037188247234022e-04 -4.1663912306362684e-04 0.0000000000000000e+00  4.4574601949365643e-04 -4.7976189224748693e-04 0.0000000000000000e+00  5.6744906996979063e-04 -5.4564131686874568e-04 0.0000000000000000e+00  7.0614719831139146e-04 -6.1380300945879584e-04 0.0000000000000000e+00  8.6237940169577650e-04 -6.8372285676476352e-04 0.0000000000000000e+00  1.0365394029654210e-03 -7.5482602409904394e-04 0.0000000000000000e+00  1.2288532518651590e-03 -8.2648673696068960e-04 0.0000000000000000e+00  1.4393498406853270e-03 -8.9802901374385475e-04 0.0000000000000000e+00  1.6678194239705337e-03 -9.6872853266555866e-04 0.0000000000000000e+00  1.9137516634880317e-03 -1.0378158272330454e-03 0.0000000000000000e+00  2.1762388200909054e-03 -1.1044810209849365e-03 0.0000000000000000e+00  2.4538201618835589e-03 -1.1678803379701018e-03 0.0000000000000000e+00  2.7442285467531502e-03 -1.2271446637376561e-03 0.0000000000000000e+00  3.0439768654045391e-03 -1.2813904814606915e-03 0.0000000000000000e+00  3.3476873264717886e-03 -1.3297335570502692e-03 0.0000000000000000e+00  3.6470168425950440e-03 -1.3713057624678523e-03 0.0000000000000000e+00  3.9289641714266759e-03 -1.4052753395320465e-03 0.0000000000000000e+00  4.1732590626818895e-03 -1.4308706053767397e-03 0.0000000000000000e+00  4.3484375802876315e-03 -1.4474064302142642e-03 0.0000000000000000e+00  4.4061216666551441e-03 -1.4543116179969945e-03 0.0000000000000000e+00  4.2729878149434007e-03 -1.4511535090393833e-03 0.0000000000000000e+00  3.8400030859630152e-03 -1.4376538301346668e-03 0.0000000000000000e+00  2.9488321590607170e-03 -1.4136875127580527e-03 0.0000000000000000e+00  1.3759931745759289e-03 -1.3792547494947736e-03 0.0000000000000000e+00  -1.1835730255713329e-03 -1.3344173482115337e-03 0.0000000000000000e+00  -5.1304628154393746e-03 -1.2791965056962781e-03 0.0000000000000000e+00  -1.0967960494277776e-02 -1.2134497593220830e-03 0.0000000000000000e+00  -1.9297624047948807e-02 -1.1368095547542793e-03 0.0000000000000000e+00  0.0000000000000000e+00 2.8315849218150708e-05 0.0000000000000000e+00  -1.6696487840050861e-05 2.4838245755828351e-05 0.0000000000000000e+00  -3.1978832459780109e-05 1.4610029635884872e-05 0.0000000000000000e+00  -4.4520775900461191e-05 -2.3380172546804898e-06 0.0000000000000000e+00  -5.3003955738699981e-05 -2.5941929723281416e-05 0.0000000000000000e+00  -5.6109443624671958e-05 -5.6109443624696590e-05 0.0000000000000000e+00  -5.2531081843563924e-05 -9.2717399051683746e-05 0.0000000000000000e+00  -4.0985260025402606e-05 -1.3560936444277633e-04 0.0000000000000000e+00  -2.0218380702858576e-05 -1.8459334233942979e-04 0.0000000000000000e+00  1.0986052388938905e-05 -2.3943917223812162e-04 0.0000000000000000e+00  5.3799978078650316e-05 -2.9987558790232194e-04 0.0000000000000000e+00  1.0934265956205564e-04 -3.6558700002284214e-04 0.0000000000000000e+00  1.7867175124274549e-04 -4.3621010733475781e-04 0.0000000000000000e+00  2.6277343454011266e-04 -5.1133045340771822e-04 0.0000000000000000e+00  3.6255149819974043e-04 -5.9047905964290551e-04 0.0000000000000000e+00  4.7881519078085428e-04 -6.7312928081600019e-04 0.0000000000000000e+00  6.1226556601956994e-04 -7.5869404720947198e-04 0.0000000000000000e+00  7.6347983202691987e-04 -8.4652367625988529e-04 0.0000000000000000e+00  9.3289282533394924e-04 -9.3590445477444325e-04 0.0000000000000000e+00  1.1207740292799272e-03 -1.0260582100851724e-03 0.0000000000000000e+00  1.3271973240073620e-03 -1.1161431037658267e-03 0.0000000000000000e+00  1.5519985364583133e-03 -1.2052558955358947e-03 0.0000000000000000e+00  1.7947122854801965e-03 -1.2924359374839585e-03 0.0000000000000000e+00  2.0544737098778078e-03 -1.3766711713758093e-03 0.0000000000000000e+00  2.3298611044456044e-03 -1.4569064146516472e-03 0.0000000000000000e+00  2.6186403671356624e-03 -1.5320542324125399e-03 0.0000000000000000e+00  2.9173488856522336e-03 -1.6010086961913551e-03 0.0000000000000000e+00  3.2206218071648518e-03 -1.6626623071910652e-03 0.0000000000000000e+00  3.5201139822742230e-03 -1.7159262764163553e-03 0.0000000000000000e+00  3.8028034287524641e-03 -1.7597541453137975e-03 0.0000000000000000e+00  4.0483770533643482e-03 -1.7931683139166157e-03 0.0000000000000000e+00  4.2253037565370332e-03 -1.8152883280647934e-03 0.0000000000000000e+00  4.2851145699586918e-03 -1.8253587194781635e-03 0.0000000000000000e+00  4.1543769350681787e-03 -1.8227728936714106e-03 0.0000000000000000e+00  3.7239439719965778e-03 -1.8070883998497400e-03 0.0000000000000000e+00  2.8353845563992112e-03 -1.7780286518167181e-03 0.0000000000000000e+00  1.2651719504622962e-03 -1.7354678985227498e-03 0.0000000000000000e+00  -1.2917090827191118e-03 -1.6794012276031499e-03 0.0000000000000000e+00  -5.2356914895394678e-03 -1.6099111891730588e-03 0.0000000000000000e+00  -1.1069773693980307e-02 -1.5271609787217344e-03 0.0000000000000000e+00  -1.9395154908682113e-02 -1.4314829348548179e-03 0.0000000000000000e+00  0.0000000000000000e+00 4.8711830128297396e-05 0.0000000000000000e+00  -2.4002399149171748e-05 4.4558643842938730e-05 0.0000000000000000e+00  -4.6603971975798737e-05 3.2303528552801779e-05 0.0000000000000000e+00  -6.6471257428249976e-05 1.1981912868736529e-05 0.0000000000000000e+00  -8.2281992307155967e-05 -1.6332429483535513e-05 0.0000000000000000e+00  -9.2717399051622475e-05 -5.2531081841700093e-05 0.0000000000000000e+00  -9.6469665868588377e-05 -9.6469665865668173e-05 0.0000000000000000e+00  -9.2250575564734090e-05 -1.4796519335860971e-04 0.0000000000000000e+00  -7.8798674119001723e-05 -2.0679315417967032e-04 0.0000000000000000e+00  -5.4886073449304062e-05 -2.7268422535795656e-04 0.0000000000000000e+00  -1.9325587179588889e-05 -3.4532058370504375e-04 0.0000000000000000e+00  2.9021461607190584e-05 -4.2433189073379837e-04 0.0000000000000000e+00  9.1236571730606873e-05 -5.0929105823450580e-04 0.0000000000000000e+00  1.6833439211579320e-04 -5.9970992605863096e-04 0.0000000000000000e+00  2.6125190011039973e-04 -6.9503500449186759e-04 0.0000000000000000e+00  3.7083623594751319e-04 -7.9464345583568640e-04 0.0000000000000000e+00  4.9783089152487139e-04 -8.9783951430818447e-04 0.0000000000000000e+00  6.4285974119643124e-04 -1.0038515688304628e-03 0.0000000000000000e+00  8.0640801147347895e-04 -1.1118301589965905e-03 0.0000000000000000e+00  9.8879858472062667e-04 -1.2208471588661791e-03 0.0000000000000000e+00  1.1901607991609592e-03 -1.3298964453496620e-03 0.0000000000000000e+00  1.4103867880876902e-03 -1.4378963663600477e-03 0.0000000000000000e+00  1.6490668268445735e-03 -1.5436943374676250e-03 0.0000000000000000e+00  1.9053892476812494e-03 -1.6460739030586479e-03 0.0000000000000000e+00  2.1779809197373092e-03 -1.7437645959629924e-03 0.0000000000000000e+00  2.4646491747065723e-03 -1.8354549124275359e-03 0.0000000000000000e+00  2.7619628018059257e-03 -1.9198086766359606e-03 0.0000000000000000e+00  3.0645750955429429e-03 -1.9954849798276279e-03 0.0000000000000000e+00  3.3641423792500260e-03 -2.0611617117897857e-03 0.0000000000000000e+00  3.6476241467625781e-03 -2.1155624111939032e-03 0.0000000000000000e+00  3.8946661201784828e-03 -2.1574856972425330e-03 0.0000000000000000e+00  4.0736722704751991e-03 -2.1858358837730722e-03 0.0000000000000000e+00  4.1360867835212910e-03 -2.1996525770408863e-03 0.0000000000000000e+00  4.0083747127480206e-03 -2.1981363554660631e-03 0.0000000000000000e+00  3.5