<?xml version="1.0"?>
<VTKFile type="UnstructuredGrid"  version="0.1"  >
<UnstructuredGrid>
<Piece  NumberOfPoints="1681" NumberOfCells="3200">
<Points>
<DataArray  type="Float64"  NumberOfComponents="3"  format="ascii">0 0 0  0.5 0 0  1 0 0  1.5 0 0  2 0 0  2.5 0 0  3 0 0  3.5 0 0  4 0 0  4.5 0 0  5 0 0  5.5 0 0  6 0 0  6.5 0 0  7 0 0  7.5 0 0  8 0 0  8.5 0 0  9 0 0  9.5 0 0  10 0 0  10.5 0 0  11 0 0  11.5 0 0  12 0 0  12.5 0 0  13 0 0  13.5 0 0  14 0 0  14.5 0 0  15 0 0  15.5 0 0  16 0 0  16.5 0 0  17 0 0  17.5 0 0  18 0 0  18.5 0 0  19 0 0  19.5 0 0  20 0 0  0 0.5 0  0.5 0.5 0  1 0.5 0  1.5 0.5 0  2 0.5 0  2.5 0.5 0  3 0.5 0  3.5 0.5 0  4 0.5 0  4.5 0.5 0  5 0.5 0  5.5 0.5 0  6 0.5 0  6.5 0.5 0  7 0.5 0  7.5 0.5 0  8 0.5 0  8.5 0.5 0  9 0.5 0  9.5 0.5 0  10 0.5 0  10.5 0.5 0  11 0.5 0  11.5 0.5 0  12 0.5 0  12.5 0.5 0  13 0.5 0  13.5 0.5 0  14 0.5 0  14.5 0.5 0  15 0.5 0  15.5 0.5 0  16 0.5 0  16.5 0.5 0  17 0.5 0  17.5 0.5 0  18 0.5 0  18.5 0.5 0  19 0.5 0  19.5 0.5 0  20 0.5 0  0 1 0  0.5 1 0  1 1 0  1.5 1 0  2 1 0  2.5 1 0  3 1 0  3.5 1 0  4 1 0  4.5 1 0  5 1 0  5.5 1 0  6 1 0  6.5 1 0  7 1 0  7.5 1 0  8 1 0  8.5 1 0  9 1 0  9.5 1 0  10 1 0  10.5 1 0  11 1 0  11.5 1 0  12 1 0  12.5 1 0  13 1 0  13.5 1 0  14 1 0  14.5 1 0  15 1 0  15.5 1 0  16 1 0  16.5 1 0  17 1 0  17.5 1 0  18 1 0  18.5 1 0  19 1 0  19.5 1 0  20 1 0  0 1.5 0  0.5 1.5 0  1 1.5 0  1.5 1.5 0  2 1.5 0  2.5 1.5 0  3 1.5 0  3.5 1.5 0  4 1.5 0  4.5 1.5 0  5 1.5 0  5.5 1.5 0  6 1.5 0  6.5 1.5 0  7 1.5 0  7.5 1.5 0  8 1.5 0  8.5 1.5 0  9 1.5 0  9.5 1.5 0  10 1.5 0  10.5 1.5 0  11 1.5 0  11.5 1.5 0  12 1.5 0  12.5 1.5 0  13 1.5 0  13.5 1.5 0  14 1.5 0  14.5 1.5 0  15 1.5 0  15.5 1.5 0  16 1.5 0  16.5 1.5 0  17 1.5 0  17.5 1.5 0  18 1.5 0  18.5 1.5 0  19 1.5 0  19.5 1.5 0  20 1.5 0  0 2 0  0.5 2 0  1 2 0  1.5 2 0  2 2 0  2.5 2 0  3 2 0  3.5 2 0  4 2 0  4.5 2 0  5 2 0  5.5 2 0  6 2 0  6.5 2 0  7 2 0  7.5 2 0  8 2 0  8.5 2 0  9 2 0  9.5 2 0  10 2 0  10.5 2 0  11 2 0  11.5 2 0  12 2 0  12.5 2 0  13 2 0  13.5 2 0  14 2 0  14.5 2 0  15 2 0  15.5 2 0  16 2 0  16.5 2 0  17 2 0  17.5 2 0  18 2 0  18.5 2 0  19 2 0  19.5 2 0  20 2 0  0 2.5 0  0.5 2.5 0  1 2.5 0  1.5 2.5 0  2 2.5 0  2.5 2.5 0  3 2.5 0  3.5 2.5 0  4 2.5 0  4.5 2.5 0  5 2.5 0  5.5 2.5 0  6 2.5 0  6.5 2.5 0  7 2.5 0  7.5 2.5 0  8 2.5 0  8.5 2.5 0  9 2.5 0  9.5 2.5 0  10 2.5 0  10.5 2.5 0  11 2.5 0  11.5 2.5 0  12 2.5 0  12.5 2.5 0  13 2.5 0  13.5 2.5 0  14 2.5 0  14.5 2.5 0  15 2.5 0  15.5 2.5 0  16 2.5 0  16.5 2.5 0  17 2.5 0  17.5 2.5 0  18 2.5 0  18.5 2.5 0  19 2.5 0  19.5 2.5 0  20 2.5 0  0 3 0  0.5 3 0  1 3 0  1.5 3 0  2 3 0  2.5 3 0  3 3 0  3.5 3 0  4 3 0  4.5 3 0  5 3 0  5.5 3 0  6 3 0  6.5 3 0  7 3 0  7.5 3 0  8 3 0  8.5 3 0  9 3 0  9.5 3 0  10 3 0  10.5 3 0  11 3 0  11.5 3 0  12 3 0  12.5 3 0  13 3 0  13.5 3 0  14 3 0  14.5 3 0  15 3 0  15.5 3 0  16 3 0  16.5 3 0  17 3 0  17.5 3 0  18 3 0  18.5 3 0  19 3 0  19.5 3 0  20 3 0  0 3.5 0  0.5 3.5 0  1 3.5 0  1.5 3.5 0  2 3.5 0  2.5 3.5 0  3 3.5 0  3.5 3.5 0  4 3.5 0  4.5 3.5 0  5 3.5 0  5.5 3.5 0  6 3.5 0  6.5 3.5 0  7 3.5 0  7.5 3.5 0  8 3.5 0  8.5 3.5 0  9 3.5 0  9.5 3.5 0  10 3.5 0  10.5 3.5 0  11 3.5 0  11.5 3.5 0  12 3.5 0  12.5 3.5 0  13 3.5 0  13.5 3.5 0  14 3.5 0  14.5 3.5 0  15 3.5 0  15.5 3.5 0  16 3.5 0  16.5 3.5 0  17 3.5 0  17.5 3.5 0  18 3.5 0  18.5 3.5 0  19 3.5 0  19.5 3.5 0  20 3.5 0  0 4 0  0.5 4 0  1 4 0  1.5 4 0  2 4 0  2.5 4 0  3 4 0  3.5 4 0  4 4 0  4.5 4 0  5 4 0  5.5 4 0  6 4 0  6.5 4 0  7 4 0  7.5 4 0  8 4 0  8.5 4 0  9 4 0  9.5 4 0  10 4 0  10.5 4 0  11 4 0  11.5 4 0  12 4 0  12.5 4 0  13 4 0  13.5 4 0  14 4 0  14.5 4 0  15 4 0  15.5 4 0  16 4 0  16.5 4 0  17 4 0  17.5 4 0  18 4 0  18.5 4 0  19 4 0  19.5 4 0  20 4 0  0 4.5 0  0.5 4.5 0  1 4.5 0  1.5 4.5 0  2 4.5 0  2.5 4.5 0  3 4.5 0  3.5 4.5 0  4 4.5 0  4.5 4.5 0  5 4.5 0  5.5 4.5 0  6 4.5 0  6.5 4.5 0  7 4.5 0  7.5 4.5 0  8 4.5 0  8.5 4.5 0  9 4.5 0  9.5 4.5 0  10 4.5 0  10.5 4.5 0  11 4.5 0  11.5 4.5 0  12 4.5 0  12.5 4.5 0  13 4.5 0  13.5 4.5 0  14 4.5 0  14.5 4.5 0  15 4.5 0  15.5 4.5 0  16 4.5 0  16.5 4.5 0  17 4.5 0  17.5 4.5 0  18 4.5 0  18.5 4.5 0  19 4.5 0  19.5 4.5 0  20 4.5 0  0 5 0  0.5 5 0  1 5 0  1.5 5 0  2 5 0  2.5 5 0  3 5 0  3.5 5 0  4 5 0  4.5 5 0  5 5 0  5.5 5 0  6 5 0  6.5 5 0  7 5 0  7.5 5 0  8 5 0  8.5 5 0  9 5 0  9.5 5 0  10 5 0  10.5 5 0  11 5 0  11.5 5 0  12 5 0  12.5 5 0  13 5 0  13.5 5 0  14 5 0  14.5 5 0  15 5 0  15.5 5 0  16 5 0  16.5 5 0  17 5 0  17.5 5 0  18 5 0  18.5 5 0  19 5 0  19.5 5 0  20 5 0  0 5.5 0  0.5 5.5 0  1 5.5 0  1.5 5.5 0  2 5.5 0  2.5 5.5 0  3 5.5 0  3.5 5.5 0  4 5.5 0  4.5 5.5 0  5 5.5 0  5.5 5.5 0  6 5.5 0  6.5 5.5 0  7 5.5 0  7.5 5.5 0  8 5.5 0  8.5 5.5 0  9 5.5 0  9.5 5.5 0  10 5.5 0  10.5 5.5 0  11 5.5 0  11.5 5.5 0  12 5.5 0  12.5 5.5 0  13 5.5 0  13.5 5.5 0  14 5.5 0  14.5 5.5 0  15 5.5 0  15.5 5.5 0  16 5.5 0  16.5 5.5 0  17 5.5 0  17.5 5.5 0  18 5.5 0  18.5 5.5 0  19 5.5 0  19.5 5.5 0  20 5.5 0  0 6 0  0.5 6 0  1 6 0  1.5 6 0  2 6 0  2.5 6 0  3 6 0  3.5 6 0  4 6 0  4.5 6 0  5 6 0  5.5 6 0  6 6 0  6.5 6 0  7 6 0  7.5 6 0  8 6 0  8.5 6 0  9 6 0  9.5 6 0  10 6 0  10.5 6 0  11 6 0  11.5 6 0  12 6 0  12.5 6 0  13 6 0  13.5 6 0  14 6 0  14.5 6 0  15 6 0  15.5 6 0  16 6 0  16.5 6 0  17 6 0  17.5 6 0  18 6 0  18.5 6 0  19 6 0  19.5 6 0  20 6 0  0 6.5 0  0.5 6.5 0  1 6.5 0  1.5 6.5 0  2 6.5 0  2.5 6.5 0  3 6.5 0  3.5 6.5 0  4 6.5 0  4.5 6.5 0  5 6.5 0  5.5 6.5 0  6 6.5 0  6.5 6.5 0  7 6.5 0  7.5 6.5 0  8 6.5 0  8.5 6.5 0  9 6.5 0  9.5 6.5 0  10 6.5 0  10.5 6.5 0  11 6.5 0  11.5 6.5 0  12 6.5 0  12.5 6.5 0  13 6.5 0  13.5 6.5 0  14 6.5 0  14.5 6.5 0  15 6.5 0  15.5 6.5 0  16 6.5 0  16.5 6.5 0  17 6.5 0  17.5 6.5 0  18 6.5 0  18.5 6.5 0  19 6.5 0  19.5 6.5 0  20 6.5 0  0 7 0  0.5 7 0  1 7 0  1.5 7 0  2 7 0  2.5 7 0  3 7 0  3.5 7 0  4 7 0  4.5 7 0  5 7 0  5.5 7 0  6 7 0  6.5 7 0  7 7 0  7.5 7 0  8 7 0  8.5 7 0  9 7 0  9.5 7 0  10 7 0  10.5 7 0  11 7 0  11.5 7 0  12 7 0  12.5 7 0  13 7 0  13.5 7 0  14 7 0  14.5 7 0  15 7 0  15.5 7 0  16 7 0  16.5 7 0  17 7 0  17.5 7 0  18 7 0  18.5 7 0  19 7 0  19.5 7 0  20 7 0  0 7.5 0  0.5 7.5 0  1 7.5 0  1.5 7.5 0  2 7.5 0  2.5 7.5 0  3 7.5 0  3.5 7.5 0  4 7.5 0  4.5 7.5 0  5 7.5 0  5.5 7.5 0  6 7.5 0  6.5 7.5 0  7 7.5 0  7.5 7.5 0  8 7.5 0  8.5 7.5 0  9 7.5 0  9.5 7.5 0  10 7.5 0  10.5 7.5 0  11 7.5 0  11.5 7.5 0  12 7.5 0  12.5 7.5 0  13 7.5 0  13.5 7.5 0  14 7.5 0  14.5 7.5 0  15 7.5 0  15.5 7.5 0  16 7.5 0  16.5 7.5 0  17 7.5 0  17.5 7.5 0  18 7.5 0  18.5 7.5 0  19 7.5 0  19.5 7.5 0  20 7.5 0  0 8 0  0.5 8 0  1 8 0  1.5 8 0  2 8 0  2.5 8 0  3 8 0  3.5 8 0  4 8 0  4.5 8 0  5 8 0  5.5 8 0  6 8 0  6.5 8 0  7 8 0  7.5 8 0  8 8 0  8.5 8 0  9 8 0  9.5 8 0  10 8 0  10.5 8 0  11 8 0  11.5 8 0  12 8 0  12.5 8 0  13 8 0  13.5 8 0  14 8 0  14.5 8 0  15 8 0  15.5 8 0  16 8 0  16.5 8 0  17 8 0  17.5 8 0  18 8 0  18.5 8 0  19 8 0  19.5 8 0  20 8 0  0 8.5 0  0.5 8.5 0  1 8.5 0  1.5 8.5 0  2 8.5 0  2.5 8.5 0  3 8.5 0  3.5 8.5 0  4 8.5 0  4.5 8.5 0  5 8.5 0  5.5 8.5 0  6 8.5 0  6.5 8.5 0  7 8.5 0  7.5 8.5 0  8 8.5 0  8.5 8.5 0  9 8.5 0  9.5 8.5 0  10 8.5 0  10.5 8.5 0  11 8.5 0  11.5 8.5 0  12 8.5 0  12.5 8.5 0  13 8.5 0  13.5 8.5 0  14 8.5 0  14.5 8.5 0  15 8.5 0  15.5 8.5 0  16 8.5 0  16.5 8.5 0  17 8.5 0  17.5 8.5 0  18 8.5 0  18.5 8.5 0  19 8.5 0  19.5 8.5 0  20 8.5 0  0 9 0  0.5 9 0  1 9 0  1.5 9 0  2 9 0  2.5 9 0  3 9 0  3.5 9 0  4 9 0  4.5 9 0  5 9 0  5.5 9 0  6 9 0  6.5 9 0  7 9 0  7.5 9 0  8 9 0  8.5 9 0  9 9 0  9.5 9 0  10 9 0  10.5 9 0  11 9 0  11.5 9 0  12 9 0  12.5 9 0  13 9 0  13.5 9 0  14 9 0  14.5 9 0  15 9 0  15.5 9 0  16 9 0  16.5 9 0  17 9 0  17.5 9 0  18 9 0  18.5 9 0  19 9 0  19.5 9 0  20 9 0  0 9.5 0  0.5 9.5 0  1 9.5 0  1.5 9.5 0  2 9.5 0  2.5 9.5 0  3 9.5 0  3.5 9.5 0  4 9.5 0  4.5 9.5 0  5 9.5 0  5.5 9.5 0  6 9.5 0  6.5 9.5 0  7 9.5 0  7.5 9.5 0  8 9.5 0  8.5 9.5 0  9 9.5 0  9.5 9.5 0  10 9.5 0  10.5 9.5 0  11 9.5 0  11.5 9.5 0  12 9.5 0  12.5 9.5 0  13 9.5 0  13.5 9.5 0  14 9.5 0  14.5 9.5 0  15 9.5 0  15.5 9.5 0  16 9.5 0  16.5 9.5 0  17 9.5 0  17.5 9.5 0  18 9.5 0  18.5 9.5 0  19 9.5 0  19.5 9.5 0  20 9.5 0  0 10 0  0.5 10 0  1 10 0  1.5 10 0  2 10 0  2.5 10 0  3 10 0  3.5 10 0  4 10 0  4.5 10 0  5 10 0  5.5 10 0  6 10 0  6.5 10 0  7 10 0  7.5 10 0  8 10 0  8.5 10 0  9 10 0  9.5 10 0  10 10 0  10.5 10 0  11 10 0  11.5 10 0  12 10 0  12.5 10 0  13 10 0  13.5 10 0  14 10 0  14.5 10 0  15 10 0  15.5 10 0  16 10 0  16.5 10 0  17 10 0  17.5 10 0  18 10 0  18.5 10 0  19 10 0  19.5 10 0  20 10 0  0 10.5 0  0.5 10.5 0  1 10.5 0  1.5 10.5 0  2 10.5 0  2.5 10.5 0  3 10.5 0  3.5 10.5 0  4 10.5 0  4.5 10.5 0  5 10.5 0  5.5 10.5 0  6 10.5 0  6.5 10.5 0  7 10.5 0  7.5 10.5 0  8 10.5 0  8.5 10.5 0  9 10.5 0  9.5 10.5 0  10 10.5 0  10.5 10.5 0  11 10.5 0  11.5 10.5 0  12 10.5 0  12.5 10.5 0  13 10.5 0  13.5 10.5 0  14 10.5 0  14.5 10.5 0  15 10.5 0  15.5 10.5 0  16 10.5 0  16.5 10.5 0  17 10.5 0  17.5 10.5 0  18 10.5 0  18.5 10.5 0  19 10.5 0  19.5 10.5 0  20 10.5 0  0 11 0  0.5 11 0  1 11 0  1.5 11 0  2 11 0  2.5 11 0  3 11 0  3.5 11 0  4 11 0  4.5 11 0  5 11 0  5.5 11 0  6 11 0  6.5 11 0  7 11 0  7.5 11 0  8 11 0  8.5 11 0  9 11 0  9.5 11 0  10 11 0  10.5 11 0  11 11 0  11.5 11 0  12 11 0  12.5 11 0  13 11 0  13.5 11 0  14 11 0  14.5 11 0  15 11 0  15.5 11 0  16 11 0  16.5 11 0  17 11 0  17.5 11 0  18 11 0  18.5 11 0  19 11 0  19.5 11 0  20 11 0  0 11.5 0  0.5 11.5 0  1 11.5 0  1.5 11.5 0  2 11.5 0  2.5 11.5 0  3 11.5 0  3.5 11.5 0  4 11.5 0  4.5 11.5 0  5 11.5 0  5.5 11.5 0  6 11.5 0  6.5 11.5 0  7 11.5 0  7.5 11.5 0  8 11.5 0  8.5 11.5 0  9 11.5 0  9.5 11.5 0  10 11.5 0  10.5 11.5 0  11 11.5 0  11.5 11.5 0  12 11.5 0  12.5 11.5 0  13 11.5 0  13.5 11.5 0  14 11.5 0  14.5 11.5 0  15 11.5 0  15.5 11.5 0  16 11.5 0  16.5 11.5 0  17 11.5 0  17.5 11.5 0  18 11.5 0  18.5 11.5 0  19 11.5 0  19.5 11.5 0  20 11.5 0  0 12 0  0.5 12 0  1 12 0  1.5 12 0  2 12 0  2.5 12 0  3 12 0  3.5 12 0  4 12 0  4.5 12 0  5 12 0  5.5 12 0  6 12 0  6.5 12 0  7 12 0  7.5 12 0  8 12 0  8.5 12 0  9 12 0  9.5 12 0  10 12 0  10.5 12 0  11 12 0  11.5 12 0  12 12 0  12.5 12 0  13 12 0  13.5 12 0  14 12 0  14.5 12 0  
[...]
<PointData  Vectors="f_5623-0"> 
<DataArray  type="Float64"  Name="f_5623-0"  NumberOfComponents="3" format="ascii">0.0000000000000000e+00 0.0000000000000000e+00 0.0000000000000000e+00  1.9421602400750090e-06 0.0000000000000000e+00 0.0000000000000000e+00  9.2573246629302592e-06 0.0000000000000000e+00 0.0000000000000000e+00  2.9201302267720311e-05 0.0000000000000000e+00 0.0000000000000000e+00  6.8044535209852444e-05 0.0000000000000000e+00 0.0000000000000000e+00  1.3192036236535807e-04 0.0000000000000000e+00 0.0000000000000000e+00  2.2684701073147492e-04 0.0000000000000000e+00 0.0000000000000000e+00  3.5868873083403751e-04 0.0000000000000000e+00 0.0000000000000000e+00  5.3311060548441667e-04 0.0000000000000000e+00 0.0000000000000000e+00  7.5552708872434903e-04 0.0000000000000000e+00 0.0000000000000000e+00  1.0310409648213907e-03 0.0000000000000000e+00 0.0000000000000000e+00  1.3643688439054981e-03 0.0000000000000000e+00 0.0000000000000000e+00  1.7597482552886364e-03 0.0000000000000000e+00 0.0000000000000000e+00  2.2208197830679488e-03 0.0000000000000000e+00 0.0000000000000000e+00  2.7504754930110357e-03 0.0000000000000000e+00 0.0000000000000000e+00  3.3506620416342953e-03 0.0000000000000000e+00 0.0000000000000000e+00  4.0221232366942691e-03 0.0000000000000000e+00 0.0000000000000000e+00  4.7640623475481347e-03 0.0000000000000000e+00 0.0000000000000000e+00  5.5736991087961801e-03 0.0000000000000000e+00 0.0000000000000000e+00  6.4456901769290240e-03 0.0000000000000000e+00 0.0000000000000000e+00  7.3713749944471392e-03 0.0000000000000000e+00 0.0000000000000000e+00  8.3378020207712338e-03 0.0000000000000000e+00 0.0000000000000000e+00  9.3264838603611643e-03 0.0000000000000000e+00 0.0000000000000000e+00  1.0311825147162567e-02 0.0000000000000000e+00 0.0000000000000000e+00  1.1259165881743464e-02 0.0000000000000000e+00 0.0000000000000000e+00  1.2122387680737529e-02 0.0000000000000000e+00 0.0000000000000000e+00  1.2841044223080002e-02 0.0000000000000000e+00 0.0000000000000000e+00  1.3337003833891760e-02 0.0000000000000000e+00 0.0000000000000000e+00  1.3510635704066019e-02 0.0000000000000000e+00 0.0000000000000000e+00  1.3236635320913339e-02 0.0000000000000000e+00 0.0000000000000000e+00  1.2359671116591784e-02 0.0000000000000000e+00 0.0000000000000000e+00  1.0690141149054167e-02 0.0000000000000000e+00 0.0000000000000000e+00  8.0004474397980009e-03 0.0000000000000000e+00 0.0000000000000000e+00  4.0223090967140438e-03 0.0000000000000000e+00 0.0000000000000000e+00  -1.5542838499793918e-03 0.0000000000000000e+00 0.0000000000000000e+00  -9.0798610168486629e-03 0.0000000000000000e+00 0.0000000000000000e+00  -1.8941480840851149e-02 0.0000000000000000e+00 0.0000000000000000e+00  -3.1555636545006531e-02 0.0000000000000000e+00 0.0000000000000000e+00  -4.7357988241782493e-02 0.0000000000000000e+00 0.0000000000000000e+00  -6.6789720529641175e-02 0.0000000000000000e+00 0.0000000000000000e+00  -9.0277956748679805e-02 0.0000000000000000e+00 0.0000000000000000e+00  0.0000000000000000e+00 1.9421602395968496e-06 0.0000000000000000e+00  -2.1360975763460463e-06 -2.1360975788339311e-06 0.0000000000000000e+00  2.2966287399369450e-06 -1.2072107807551649e-05 0.0000000000000000e+00  1.9208812117622571e-05 -2.7960417480052898e-05 0.0000000000000000e+00  5.4933017919357286e-05 -4.9952276785138665e-05 0.0000000000000000e+00  1.1566133638963415e-04 -7.8038329167780449e-05 0.0000000000000000e+00  2.0743532037294473e-04 -1.1212050447404610e-04 0.0000000000000000e+00  3.3612961606838788e-04 -1.5204955794820749e-04 0.0000000000000000e+00  5.0741616976140828e-04 -1.9763677849244629e-04 0.0000000000000000e+00  7.2671603328435203e-04 -2.4865597114056100e-04 0.0000000000000000e+00  9.9913951931902812e-04 -3.0484217459396048e-04 0.0000000000000000e+00  1.3294121915448888e-03 -3.6588927535520364e-04 0.0000000000000000e+00  1.7217821847552769e-03 -4.3144724607060557e-04 0.0000000000000000e+00  2.1799024393405002e-03 -5.0111930133135468e-04 0.0000000000000000e+00  2.7066791431477107e-03 -5.7445914262245891e-04 0.0000000000000000e+00  3.3040747818997387e-03 -6.5096843825129857e-04 0.0000000000000000e+00  3.9728505636459875e-03 -7.3009468900667586e-04 0.0000000000000000e+00  4.7122285061776490e-03 -8.1122964506232290e-04 0.0000000000000000e+00  5.5194481184358407e-03 -8.9370845837796775e-04 0.0000000000000000e+00  6.3891864236261132e-03 -9.7680977342191064e-04 0.0000000000000000e+00  7.3128032690353128e-03 -1.0597569765231874e-03 0.0000000000000000e+00  8.2773668793043494e-03 -1.1417208380795983e-03 0.0000000000000000e+00  9.2644081932045010e-03 -1.2218237906102350e-03 0.0000000000000000e+00  1.0248347872603458e-02 -1.2991460861434591e-03 0.0000000000000000e+00  1.1194538739531924e-02 -1.3727340652199408e-03 0.0000000000000000e+00  1.2056871202013464e-02 -1.4416107403388714e-03 0.0000000000000000e+00  1.2774903106599209e-02 -1.5047888415220948e-03 0.0000000000000000e+00  1.3270502169318209e-02 -1.5612863771936804e-03 0.0000000000000000e+00  1.3444032742547343e-02 -1.6101446153897905e-03 0.0000000000000000e+00  1.3170182765123087e-02 -1.6504481687100113e-03 0.0000000000000000e+00  1.2293613110187274e-02 -1.6813465575545208e-03 0.0000000000000000e+00  1.0624718158417435e-02 -1.7020762281759190e-03 0.0000000000000000e+00  7.9359048519943333e-03 -1.7119815425324144e-03 0.0000000000000000e+00  3.9589103624536534e-03 -1.7105328095264279e-03 0.0000000000000000e+00  -1.6162416807891469e-03 -1.6973391071082053e-03 0.0000000000000000e+00  -9.1400353648580252e-03 -1.6721535262433796e-03 0.0000000000000000e+00  -1.8999490407927356e-02 -1.6348681686470983e-03 0.0000000000000000e+00  -3.1611132768061052e-02 -1.5854932427235954e-03 0.0000000000000000e+00  -4.7410980158638462e-02 -1.5240983066841084e-03 0.0000000000000000e+00  -6.6842162238927763e-02 -1.4506271184953857e-03 0.0000000000000000e+00  -9.0342207221100826e-02 -1.3643094467009459e-03 0.0000000000000000e+00  0.0000000000000000e+00 9.2573246601949560e-06 0.0000000000000000e+00  -1.2072107809018007e-05 2.2966287390759669e-06 0.0000000000000000e+00  -1.7190391820754420e-05 -1.7190391817667683e-05 0.0000000000000000e+00  -9.7130757716916555e-06 -4.9026265888107831e-05 0.0000000000000000e+00  1.6579964783649470e-05 -9.3152172121015240e-05 0.0000000000000000e+00  6.7863265831418168e-05 -1.4944264782612357e-04 0.0000000000000000e+00  1.5018902010519239e-04 -2.1769212727858003e-04 0.0000000000000000e+00  2.6944767761961507e-04 -2.9761438258235471e-04 0.0000000000000000e+00  4.3132845356853064e-04 -3.8884488969787115e-04 0.0000000000000000e+00  6.4127176339358522e-04 -4.9094130666313212e-04 0.0000000000000000e+00  9.0441049394585028e-04 -6.0338144473507228e-04 0.0000000000000000e+00  1.2254968739254439e-03 -7.2555944872769310e-04 0.0000000000000000e+00  1.6088103833716665e-03 -8.5678095947936816e-04 0.0000000000000000e+00  2.0580403325336245e-03 -9.9625783963419091e-04 0.0000000000000000e+00  2.5761344380391860e-03 -1.1431028966707268e-03 0.0000000000000000e+00  3.1651018085160549e-03 -1.2963249656640803e-03 0.0000000000000000e+00  3.8257550988816807e-03 -1.4548246947416836e-03 0.0000000000000000e+00  4.5573721055961001e-03 -1.6173913853365126e-03 0.0000000000000000e+00  5.3572517130994072e-03 -1.7827012617079746e-03 0.0000000000000000e+00  6.2201329186024595e-03 -1.9493175708936862e-03 0.0000000000000000e+00  7.1374388648980588e-03 -2.1156929384308662e-03 0.0000000000000000e+00  8.0963008329184606e-03 -2.2801744220253125e-03 0.0000000000000000e+00  9.0783107455905884e-03 -2.4410117096695092e-03 0.0000000000000000e+00  1.0057946106985965e-02 -2.5963688950183658e-03 0.0000000000000000e+00  1.1000610199796352e-02 -2.7443402251522671e-03 0.0000000000000000e+00  1.1860235208574358e-02 -2.8829701461233681e-03 0.0000000000000000e+00  1.2576409858602583e-02 -3.0102778613399785e-03 0.0000000000000000e+00  1.3071019919210293e-02 -3.1242864544580259e-03 0.0000000000000000e+00  1.3244433559552521e-02 -3.2230563996993914e-03 0.0000000000000000e+00  1.2971327638612199e-02 -3.3047229725979496e-03 0.0000000000000000e+00  1.2096337326145042e-02 -3.3675366727729194e-03 0.0000000000000000e+00  1.0429817924600111e-02 -3.4099052735922378e-03 0.0000000000000000e+00  7.7441259270298367e-03 -3.4304355357758242e-03 0.0000000000000000e+00  3.7709388003938026e-03 -3.4279719931825207e-03 0.0000000000000000e+00  -1.7997878447532942e-03 -3.4016295550365751e-03 0.0000000000000000e+00  -9.3186169305712746e-03 -3.3508158632579322e-03 0.0000000000000000e+00  -1.9172667568787310e-02 -3.2752379773526032e-03 0.0000000000000000e+00  -3.1778608309072580e-02 -3.1748855023674854e-03 0.0000000000000000e+00  -4.7572679715728955e-02 -3.0499818009902002e-03 0.0000000000000000e+00  -6.6998281577138594e-02 -2.9009246938356552e-03 0.0000000000000000e+00  -9.0492127707723441e-02 -2.7284560499475198e-03 0.0000000000000000e+00  0.0000000000000000e+00 2.9201302269707349e-05 0.0000000000000000e+00  -2.7960417479978406e-05 1.9208812116137027e-05 0.0000000000000000e+00  -4.9026265886394480e-05 -9.7130757723134674e-06 0.0000000000000000e+00  -5.7359613180317208e-05 -5.7359613180474424e-05 0.0000000000000000e+00  -4.6833126309655623e-05 -1.2354813720306419e-04 0.0000000000000000e+00  -1.1298360093226480e-05 -2.0803486999380162e-04 0.0000000000000000e+00  5.5295345546848335e-05 -3.1048202811729284e-04 0.0000000000000000e+00  1.5885013523063042e-04 -4.3045079485510028e-04 0.0000000000000000e+00  3.0507584363572267e-04 -5.6739657794242131e-04 0.0000000000000000e+00  4.9944097005559540e-04 -7.2066358355798001e-04 0.0000000000000000e+00  7.4711382354913014e-04 -8.8947851104927329e-04 0.0000000000000000e+00  1.0528897636037831e-03 -1.0729434133088744e-03 0.0000000000000000e+00  1.4210995666269464e-03 -1.2700279245914689e-03 0.0000000000000000e+00  1.8554923571235456e-03 -1.4795611815758825e-03 0.0000000000000000e+00  2.3590843362644373e-03 -1.7002238351151780e-03 0.0000000000000000e+00  2.9339616628143985e-03 -1.9305405932678746e-03 0.0000000000000000e+00  3.5810222017944927e-03 -2.1688737714326673e-03 0.0000000000000000e+00  4.2996363731423130e-03 -2.4134183624497951e-03 0.0000000000000000e+00  5.0872019731267055e-03 -2.6621991783765983e-03 0.0000000000000000e+00  5.9385616629528517e-03 -2.9130706538101061e-03 0.0000000000000000e+00  6.8452450304247172e-03 -3.1637199313934257e-03 0.0000000000000000e+00  7.7944901676233079e-03 -3.4116738691115380e-03 0.0000000000000000e+00  8.7679933289808356e-03 -3.6543106083964409e-03 0.0000000000000000e+00  9.7403306363065198e-03 -3.8888763162485572e-03 0.0000000000000000e+00  1.0676994733639448e-02 -4.1125076560835005e-03 0.0000000000000000e+00  1.1531994183467602e-02 -4.3222604444345869e-03 0.0000000000000000e+00  1.2244977366185501e-02 -4.5151448066173966e-03 0.0000000000000000e+00  1.2737869448970552e-02 -4.6881669462741377e-03 0.0000000000000000e+00  1.2911054662353153e-02 -4.8383773830171202e-03 0.0000000000000000e+00  1.2639200222337599e-02 -4.9629251772139215e-03 0.0000000000000000e+00  1.1766904513257593e-02 -5.0591172385739402e-03 0.0000000000000000e+00  1.0104458523869261e-02 -5.1244812889429895e-03 0.0000000000000000e+00  7.4241275400626881e-03 -5.1568304029047411e-03 0.0000000000000000e+00  3.4574723706066891e-03 -5.1543262675013890e-03 0.0000000000000000e+00  -2.1056915537435179e-03 -5.1155373758329384e-03 0.0000000000000000e+00  -9.6160885612422697e-03 -5.0394873389789461e-03 0.0000000000000000e+00  -1.9461016870094633e-02 -4.9256876799206777e-03 0.0000000000000000e+00  -3.2057333673081848e-02 -4.7741503021447923e-03 0.0000000000000000e+00  -4.7841456622739996e-02 -4.5853819204815620e-03 0.0000000000000000e+00  -6.7256901409262049e-02 -4.3603844419825913e-03 0.0000000000000000e+00  -9.0740392790217533e-02 -4.1007069346637769e-03 0.0000000000000000e+00  0.0000000000000000e+00 6.8044535209127316e-05 0.0000000000000000e+00  -4.9952276784892619e-05 5.4933017918675486e-05 0.0000000000000000e+00  -9.3152172120923097e-05 1.6579964784002893e-05 0.0000000000000000e+00  -1.2354813720523371e-04 -4.6833126305742460e-05 0.0000000000000000e+00  -1.3504213337723600e-04 -1.3504213337546159e-04 0.0000000000000000e+00  -1.2150451711143102e-04 -2.4770034642599727e-04 0.0000000000000000e+00  -7.6883874876058659e-05 -3.8434719118177088e-04 0.0000000000000000e+00  4.7359508145721925e-06 -5.4439613311804452e-04 0.0000000000000000e+00  1.2908978088876547e-04 -7.2712615676819579e-04 0.0000000000000000e+00  3.0168175366960219e-04 -9.3167295364679644e-04 0.0000000000000000e+00  5.2772675833492497e-04 -1.1570191277310115e-03 0.0000000000000000e+00  8.1207815659666764e-04 -1.4019835455076392e-03 0.0000000000000000e+00  1.1591366363071646e-03 -1.6652101340991713e-03 0.0000000000000000e+00  1.5727335087951150e-03 -1.9451564951580231e-03 0.0000000000000000e+00  2.0559795825531280e-03 -2.2400827656911411e-03 0.0000000000000000e+00  2.6110678851152314e-03 -2.5480412272980025e-03 0.0000000000000000e+00  3.2390148756859961e-03 -2.8668672370718621e-03 0.0000000000000000e+00  3.9393203156667996e-03 -3.1941721228992167e-03 0.0000000000000000e+00  4.7095206115475600e-03 -3.5273387508862140e-03 0.0000000000000000e+00  5.5446042754467382e-03 -3.8635205299295660e-03 0.0000000000000000e+00  6.4362513733762401e-03 -4.1996446627831302e-03 0.0000000000000000e+00  7.3718518877386946e-03 -4.5324204801258693e-03 0.0000000000000000e+00  8.3332515688111352e-03 -4.8583536955511064e-03 0.0000000000000000e+00  9.2951692868768060e-03 -5.1737673908265960e-03 0.0000000000000000e+00  1.0223228875779273e-02 -5.4748304737996072e-03 0.0000000000000000e+00  1.1071553396374530e-02 -5.7575942421977319e-03 0.0000000000000000e+00  1.1779883770722206e-02 -6.0180375293374250e-03 0.0000000000000000e+00  1.2270210591157378e-02 -6.2521206982083487e-03 0.0000000000000000e+00  1.2442951617755944e-02 -6.4558484810726124e-03 0.0000000000000000e+00  1.2172771592130994e-02 -6.6253413197621255e-03 0.0000000000000000e+00  1.1304227254983052e-02 -6.7569144250484445e-03 0.0000000000000000e+00  9.6475267788315323e-03 -6.8471632060160973e-03 0.0000000000000000e+00  6.9748107640852158e-03 -6.8930529766583889e-03 0.0000000000000000e+00  3.0174741715890290e-03 -6.8920098863314407e-03 0.0000000000000000e+00  -2.5348723076166466e-03 -6.8420088484953748e-03 0.0000000000000000e+00  -1.0033192374329815e-02 -6.7416530040514608e-03 0.0000000000000000e+00  -1.9865051184684745e-02 -6.5902383914052459e-03 0.0000000000000000e+00  -3.2447589819537111e-02 -6.3877977929335424e-03 0.0000000000000000e+00  -4.8217513612560110e-02 -6.1351191629763916e-03 0.0000000000000000e+00  -6.7618615861086653e-02 -5.8337293594536597e-03 0.0000000000000000e+00  -9.1087851674863288e-02 -5.4857881051002672e-03 0.0000000000000000e+00  0.0000000000000000e+00 1.3192036236703419e-04 0.0000000000000000e+00  -7.8038329167372491e-05 1.1566133638828463e-04 0.0000000000000000e+00  -1.4944264782761052e-04 6.7863265831765045e-05 0.0000000000000000e+00  -2.0803486999611717e-04 -1.1298360090026589e-05 0.0000000000000000e+00  -2.4770034642594815e-04 -1.2150451711228848e-04 0.0000000000000000e+00  -2.6231879800651579e-04 -2.6231879800735713e-04 0.0000000000000000e+00  -2.4583530469852717e-04 -4.3316827885604356e-04 0.0000000000000000e+00  -1.9231665498397111e-04 -6.3332882141337054e-04 0.0000000000000000e+00  -9.5998100255898687e-05 -8.6191333451009428e-04 0.0000000000000000e+00  4.8667574536511702e-05 -1.1178598520594789e-03 0.0000000000000000e+00  2.4695225084250935e-04 -1.3999185747547867e-03 0.0000000000000000e+00  5.0378106330320211e-04 -1.7066379014776527e-03 0.0000000000000000e+00  8.2364201672524518e-04 -2.0363497703521473e-03 0.0000000000000000e+00  1.2104698313014637e-03 -2.3871547522764775e-03 0.0000000000000000e+00  1.6674950611707431e-03 -2.7569074220092607e-03 0.0000000000000000e+00  2.1970466761785080e-03 -3.1432026118146774e-03 0.0000000000000000e+00  2.8002926685668458e-03 -3.5433632372636930e-03 0.0000000000000000e+00  3.4768987726038585e-03 -3.9544304720769375e-03 0.0000000000000000e+00  4.2245800373134730e-03 -4.3731571334609453e-03 0.0000000000000000e+00  5.0385138323573182e-03 -4.7960052162471060e-03 0.0000000000000000e+00  5.9105761068160723e-03 -5.2191485762765376e-03 0.0000000000000000e+00  6.8283557989542139e-03 -5.6384818049713204e-03 0.0000000000000000e+00  7.7738959731392335e-03 -6.0496363503281646e-03 0.0000000000000000e+00  8.7221057354580651e-03 -6.4480049187823959e-03 0.0000000000000000e+00  9.6387860052008362e-03 -6.8287751311944334e-03 0.0000000000000000e+00  1.0478217210141709e-02 -7.1869733006458764e-03 0.0000000000000000e+00  1.1180271052342962e-02 -7.5175190458823486e-03 0.0000000000000000e+00  1.1667035399342210e-02 -7.8152912478445177e-03 0.0000000000000000e+00  1.1838985111227310e-02 -8.0752055888053502e-03 0.0000000000000000e+00  1.1570795759108000e-02 -8.2923035652697399e-03 0.0000000000000000e+00  1.0706983458019171e-02 -8.4618524009338458e-03 0.0000000000000000e+00  9.0576603475862553e-03 -8.5794546476877440e-03 0.0000000000000000e+00  6.3948131660761893e-03 -8.6411653770989468e-03 0.0000000000000000e+00  2.4496245820229009e-03 -8.6436136663849972e-03 0.0000000000000000e+00  -3.0885638817879451e-03 -8.5841235623584436e-03 0.0000000000000000e+00  -1.0571037841189429e-02 -8.4608279774954966e-03 0.0000000000000000e+00  -2.0385729967728378e-02 -8.2727672718158948e-03 0.0000000000000000e+00  -3.2950183902904190e-02 -8.0199626537319369e-03 0.0000000000000000e+00  -4.8701526708776678e-02 -7.7034517114242433e-03 0.0000000000000000e+00  -6.8083957116974667e-02 -7.3252646422430666e-03 0.0000000000000000e+00  -9.1534695304376412e-02 -6.8882990202858169e-03 0.0000000000000000e+00  0.0000000000000000e+00 2.2684701072991649e-04 0.0000000000000000e+00  -1.1212050447550547e-04 2.0743532037153836e-04 0.0000000000000000e+00  -2.1769212728025401e-04 1.5018902010810467e-04 0.0000000000000000e+00  -3.1048202811688913e-04 5.5295345548836884e-05 0.0000000000000000e+00  -3.8434719118072869e-04 -7.6883874876484899e-05 0.0000000000000000e+00  -4.3316827885466061e-04 -2.4583530469938098e-04 0.0000000000000000e+00  -4.5088493475498319e-04 -4.5088493475793032e-04 0.0000000000000000e+00  -4.3154512224574052e-04 -6.9118299066799765e-04 0.0000000000000000e+00  -3.6935057193198187e-04 -9.6568951980062186e-04 0.0000000000000000e+00  -2.5870485465503469e-04 -1.2731594077160251e-03 0.0000000000000000e+00  -9.4269987752474825e-05 -1.6121261841510535e-03 0.0000000000000000e+00  1.2896336950892726e-04 -1.9808846262165756e-03 0.0000000000000000e+00  4.1558660539842243e-04 -2.3774724824340127e-03 0.0000000000000000e+00  7.6965780413191219e-04 -2.7996518049038413e-03 0.0000000000000000e+00  1.1945512977397038e-03 -3.2448904905978950e-03 0.0000000000000000e+00  1.6927602179057694e-03 -3.7103447362465888e-03 0.0000000000000000e+00  2.2656365166694469e-03 -4.1928432155368990e-03 0.0000000000000000e+00  2.9130484512470828e-03 -4.6888738936395752e-03 0.0000000000000000e+00  3.6329301830455001e-03 -5.1945744991816574e-03 0.0000000000000000e+00  4.4206919888043813e-03 -5.7057277714763800e-03 0.0000000000000000e+00  5.2684528356544413e-03 -6.2177626850654939e-03 0.0000000000000000e+00  6.1640501724716463e-03 -6.7257629162530003e-03 0.0000000000000000e+00  7.0897754988806750e-03 -7.2244838505647517e-03 0.0000000000000000e+00  8.0207797884754330e-03 -7.7083794290567576e-03 0.0000000000000000e+00  8.9230919173702156e-03 -8.1716400892011092e-03 0.0000000000000000e+00  9.7511982960430052e-03 -8.6082429687897363e-03 0.0000000000000000e+00  1.0445146042724774e-02 -9.0120154047037809e-03 0.0000000000000000e+00  1.0927159007641634e-02 -9.3767125665492734e-03 0.0000000000000000e+00  1.1097799773438501e-02 -9.6961098044045964e-03 0.0000000000000000e+00  1.0831774954662973e-02 -9.9641099318456983e-03 0.0000000000000000e+00  9.9735674280641666e-03 -1.0174865157414776e-02 0.0000000000000000e+00  8.3331854640323107e-03 -1.0322912638298220e-02 0.0000000000000000e+00  5.6824366615116952e-03 -1.0403321554444973e-02 0.0000000000000000e+00  1.7522468304319073e-03 -1.0411848091283283e-02 0.0000000