<?xml version="1.0"?>
<VTKFile type="UnstructuredGrid"  version="0.1"  >
<UnstructuredGrid>
<Piece  NumberOfPoints="1681" NumberOfCells="3200">
<Points>
<DataArray  type="Float64"  NumberOfComponents="3"  format="ascii">0 0 0  0.5 0 0  1 0 0  1.5 0 0  2 0 0  2.5 0 0  3 0 0  3.5 0 0  4 0 0  4.5 0 0  5 0 0  5.5 0 0  6 0 0  6.5 0 0  7 0 0  7.5 0 0  8 0 0  8.5 0 0  9 0 0  9.5 0 0  10 0 0  10.5 0 0  11 0 0  11.5 0 0  12 0 0  12.5 0 0  13 0 0  13.5 0 0  14 0 0  14.5 0 0  15 0 0  15.5 0 0  16 0 0  16.5 0 0  17 0 0  17.5 0 0  18 0 0  18.5 0 0  19 0 0  19.5 0 0  20 0 0  0 0.5 0  0.5 0.5 0  1 0.5 0  1.5 0.5 0  2 0.5 0  2.5 0.5 0  3 0.5 0  3.5 0.5 0  4 0.5 0  4.5 0.5 0  5 0.5 0  5.5 0.5 0  6 0.5 0  6.5 0.5 0  7 0.5 0  7.5 0.5 0  8 0.5 0  8.5 0.5 0  9 0.5 0  9.5 0.5 0  10 0.5 0  10.5 0.5 0  11 0.5 0  11.5 0.5 0  12 0.5 0  12.5 0.5 0  13 0.5 0  13.5 0.5 0  14 0.5 0  14.5 0.5 0  15 0.5 0  15.5 0.5 0  16 0.5 0  16.5 0.5 0  17 0.5 0  17.5 0.5 0  18 0.5 0  18.5 0.5 0  19 0.5 0  19.5 0.5 0  20 0.5 0  0 1 0  0.5 1 0  1 1 0  1.5 1 0  2 1 0  2.5 1 0  3 1 0  3.5 1 0  4 1 0  4.5 1 0  5 1 0  5.5 1 0  6 1 0  6.5 1 0  7 1 0  7.5 1 0  8 1 0  8.5 1 0  9 1 0  9.5 1 0  10 1 0  10.5 1 0  11 1 0  11.5 1 0  12 1 0  12.5 1 0  13 1 0  13.5 1 0  14 1 0  14.5 1 0  15 1 0  15.5 1 0  16 1 0  16.5 1 0  17 1 0  17.5 1 0  18 1 0  18.5 1 0  19 1 0  19.5 1 0  20 1 0  0 1.5 0  0.5 1.5 0  1 1.5 0  1.5 1.5 0  2 1.5 0  2.5 1.5 0  3 1.5 0  3.5 1.5 0  4 1.5 0  4.5 1.5 0  5 1.5 0  5.5 1.5 0  6 1.5 0  6.5 1.5 0  7 1.5 0  7.5 1.5 0  8 1.5 0  8.5 1.5 0  9 1.5 0  9.5 1.5 0  10 1.5 0  10.5 1.5 0  11 1.5 0  11.5 1.5 0  12 1.5 0  12.5 1.5 0  13 1.5 0  13.5 1.5 0  14 1.5 0  14.5 1.5 0  15 1.5 0  15.5 1.5 0  16 1.5 0  16.5 1.5 0  17 1.5 0  17.5 1.5 0  18 1.5 0  18.5 1.5 0  19 1.5 0  19.5 1.5 0  20 1.5 0  0 2 0  0.5 2 0  1 2 0  1.5 2 0  2 2 0  2.5 2 0  3 2 0  3.5 2 0  4 2 0  4.5 2 0  5 2 0  5.5 2 0  6 2 0  6.5 2 0  7 2 0  7.5 2 0  8 2 0  8.5 2 0  9 2 0  9.5 2 0  10 2 0  10.5 2 0  11 2 0  11.5 2 0  12 2 0  12.5 2 0  13 2 0  13.5 2 0  14 2 0  14.5 2 0  15 2 0  15.5 2 0  16 2 0  16.5 2 0  17 2 0  17.5 2 0  18 2 0  18.5 2 0  19 2 0  19.5 2 0  20 2 0  0 2.5 0  0.5 2.5 0  1 2.5 0  1.5 2.5 0  2 2.5 0  2.5 2.5 0  3 2.5 0  3.5 2.5 0  4 2.5 0  4.5 2.5 0  5 2.5 0  5.5 2.5 0  6 2.5 0  6.5 2.5 0  7 2.5 0  7.5 2.5 0  8 2.5 0  8.5 2.5 0  9 2.5 0  9.5 2.5 0  10 2.5 0  10.5 2.5 0  11 2.5 0  11.5 2.5 0  12 2.5 0  12.5 2.5 0  13 2.5 0  13.5 2.5 0  14 2.5 0  14.5 2.5 0  15 2.5 0  15.5 2.5 0  16 2.5 0  16.5 2.5 0  17 2.5 0  17.5 2.5 0  18 2.5 0  18.5 2.5 0  19 2.5 0  19.5 2.5 0  20 2.5 0  0 3 0  0.5 3 0  1 3 0  1.5 3 0  2 3 0  2.5 3 0  3 3 0  3.5 3 0  4 3 0  4.5 3 0  5 3 0  5.5 3 0  6 3 0  6.5 3 0  7 3 0  7.5 3 0  8 3 0  8.5 3 0  9 3 0  9.5 3 0  10 3 0  10.5 3 0  11 3 0  11.5 3 0  12 3 0  12.5 3 0  13 3 0  13.5 3 0  14 3 0  14.5 3 0  15 3 0  15.5 3 0  16 3 0  16.5 3 0  17 3 0  17.5 3 0  18 3 0  18.5 3 0  19 3 0  19.5 3 0  20 3 0  0 3.5 0  0.5 3.5 0  1 3.5 0  1.5 3.5 0  2 3.5 0  2.5 3.5 0  3 3.5 0  3.5 3.5 0  4 3.5 0  4.5 3.5 0  5 3.5 0  5.5 3.5 0  6 3.5 0  6.5 3.5 0  7 3.5 0  7.5 3.5 0  8 3.5 0  8.5 3.5 0  9 3.5 0  9.5 3.5 0  10 3.5 0  10.5 3.5 0  11 3.5 0  11.5 3.5 0  12 3.5 0  12.5 3.5 0  13 3.5 0  13.5 3.5 0  14 3.5 0  14.5 3.5 0  15 3.5 0  15.5 3.5 0  16 3.5 0  16.5 3.5 0  17 3.5 0  17.5 3.5 0  18 3.5 0  18.5 3.5 0  19 3.5 0  19.5 3.5 0  20 3.5 0  0 4 0  0.5 4 0  1 4 0  1.5 4 0  2 4 0  2.5 4 0  3 4 0  3.5 4 0  4 4 0  4.5 4 0  5 4 0  5.5 4 0  6 4 0  6.5 4 0  7 4 0  7.5 4 0  8 4 0  8.5 4 0  9 4 0  9.5 4 0  10 4 0  10.5 4 0  11 4 0  11.5 4 0  12 4 0  12.5 4 0  13 4 0  13.5 4 0  14 4 0  14.5 4 0  15 4 0  15.5 4 0  16 4 0  16.5 4 0  17 4 0  17.5 4 0  18 4 0  18.5 4 0  19 4 0  19.5 4 0  20 4 0  0 4.5 0  0.5 4.5 0  1 4.5 0  1.5 4.5 0  2 4.5 0  2.5 4.5 0  3 4.5 0  3.5 4.5 0  4 4.5 0  4.5 4.5 0  5 4.5 0  5.5 4.5 0  6 4.5 0  6.5 4.5 0  7 4.5 0  7.5 4.5 0  8 4.5 0  8.5 4.5 0  9 4.5 0  9.5 4.5 0  10 4.5 0  10.5 4.5 0  11 4.5 0  11.5 4.5 0  12 4.5 0  12.5 4.5 0  13 4.5 0  13.5 4.5 0  14 4.5 0  14.5 4.5 0  15 4.5 0  15.5 4.5 0  16 4.5 0  16.5 4.5 0  17 4.5 0  17.5 4.5 0  18 4.5 0  18.5 4.5 0  19 4.5 0  19.5 4.5 0  20 4.5 0  0 5 0  0.5 5 0  1 5 0  1.5 5 0  2 5 0  2.5 5 0  3 5 0  3.5 5 0  4 5 0  4.5 5 0  5 5 0  5.5 5 0  6 5 0  6.5 5 0  7 5 0  7.5 5 0  8 5 0  8.5 5 0  9 5 0  9.5 5 0  10 5 0  10.5 5 0  11 5 0  11.5 5 0  12 5 0  12.5 5 0  13 5 0  13.5 5 0  14 5 0  14.5 5 0  15 5 0  15.5 5 0  16 5 0  16.5 5 0  17 5 0  17.5 5 0  18 5 0  18.5 5 0  19 5 0  19.5 5 0  20 5 0  0 5.5 0  0.5 5.5 0  1 5.5 0  1.5 5.5 0  2 5.5 0  2.5 5.5 0  3 5.5 0  3.5 5.5 0  4 5.5 0  4.5 5.5 0  5 5.5 0  5.5 5.5 0  6 5.5 0  6.5 5.5 0  7 5.5 0  7.5 5.5 0  8 5.5 0  8.5 5.5 0  9 5.5 0  9.5 5.5 0  10 5.5 0  10.5 5.5 0  11 5.5 0  11.5 5.5 0  12 5.5 0  12.5 5.5 0  13 5.5 0  13.5 5.5 0  14 5.5 0  14.5 5.5 0  15 5.5 0  15.5 5.5 0  16 5.5 0  16.5 5.5 0  17 5.5 0  17.5 5.5 0  18 5.5 0  18.5 5.5 0  19 5.5 0  19.5 5.5 0  20 5.5 0  0 6 0  0.5 6 0  1 6 0  1.5 6 0  2 6 0  2.5 6 0  3 6 0  3.5 6 0  4 6 0  4.5 6 0  5 6 0  5.5 6 0  6 6 0  6.5 6 0  7 6 0  7.5 6 0  8 6 0  8.5 6 0  9 6 0  9.5 6 0  10 6 0  10.5 6 0  11 6 0  11.5 6 0  12 6 0  12.5 6 0  13 6 0  13.5 6 0  14 6 0  14.5 6 0  15 6 0  15.5 6 0  16 6 0  16.5 6 0  17 6 0  17.5 6 0  18 6 0  18.5 6 0  19 6 0  19.5 6 0  20 6 0  0 6.5 0  0.5 6.5 0  1 6.5 0  1.5 6.5 0  2 6.5 0  2.5 6.5 0  3 6.5 0  3.5 6.5 0  4 6.5 0  4.5 6.5 0  5 6.5 0  5.5 6.5 0  6 6.5 0  6.5 6.5 0  7 6.5 0  7.5 6.5 0  8 6.5 0  8.5 6.5 0  9 6.5 0  9.5 6.5 0  10 6.5 0  10.5 6.5 0  11 6.5 0  11.5 6.5 0  12 6.5 0  12.5 6.5 0  13 6.5 0  13.5 6.5 0  14 6.5 0  14.5 6.5 0  15 6.5 0  15.5 6.5 0  16 6.5 0  16.5 6.5 0  17 6.5 0  17.5 6.5 0  18 6.5 0  18.5 6.5 0  19 6.5 0  19.5 6.5 0  20 6.5 0  0 7 0  0.5 7 0  1 7 0  1.5 7 0  2 7 0  2.5 7 0  3 7 0  3.5 7 0  4 7 0  4.5 7 0  5 7 0  5.5 7 0  6 7 0  6.5 7 0  7 7 0  7.5 7 0  8 7 0  8.5 7 0  9 7 0  9.5 7 0  10 7 0  10.5 7 0  11 7 0  11.5 7 0  12 7 0  12.5 7 0  13 7 0  13.5 7 0  14 7 0  14.5 7 0  15 7 0  15.5 7 0  16 7 0  16.5 7 0  17 7 0  17.5 7 0  18 7 0  18.5 7 0  19 7 0  19.5 7 0  20 7 0  0 7.5 0  0.5 7.5 0  1 7.5 0  1.5 7.5 0  2 7.5 0  2.5 7.5 0  3 7.5 0  3.5 7.5 0  4 7.5 0  4.5 7.5 0  5 7.5 0  5.5 7.5 0  6 7.5 0  6.5 7.5 0  7 7.5 0  7.5 7.5 0  8 7.5 0  8.5 7.5 0  9 7.5 0  9.5 7.5 0  10 7.5 0  10.5 7.5 0  11 7.5 0  11.5 7.5 0  12 7.5 0  12.5 7.5 0  13 7.5 0  13.5 7.5 0  14 7.5 0  14.5 7.5 0  15 7.5 0  15.5 7.5 0  16 7.5 0  16.5 7.5 0  17 7.5 0  17.5 7.5 0  18 7.5 0  18.5 7.5 0  19 7.5 0  19.5 7.5 0  20 7.5 0  0 8 0  0.5 8 0  1 8 0  1.5 8 0  2 8 0  2.5 8 0  3 8 0  3.5 8 0  4 8 0  4.5 8 0  5 8 0  5.5 8 0  6 8 0  6.5 8 0  7 8 0  7.5 8 0  8 8 0  8.5 8 0  9 8 0  9.5 8 0  10 8 0  10.5 8 0  11 8 0  11.5 8 0  12 8 0  12.5 8 0  13 8 0  13.5 8 0  14 8 0  14.5 8 0  15 8 0  15.5 8 0  16 8 0  16.5 8 0  17 8 0  17.5 8 0  18 8 0  18.5 8 0  19 8 0  19.5 8 0  20 8 0  0 8.5 0  0.5 8.5 0  1 8.5 0  1.5 8.5 0  2 8.5 0  2.5 8.5 0  3 8.5 0  3.5 8.5 0  4 8.5 0  4.5 8.5 0  5 8.5 0  5.5 8.5 0  6 8.5 0  6.5 8.5 0  7 8.5 0  7.5 8.5 0  8 8.5 0  8.5 8.5 0  9 8.5 0  9.5 8.5 0  10 8.5 0  10.5 8.5 0  11 8.5 0  11.5 8.5 0  12 8.5 0  12.5 8.5 0  13 8.5 0  13.5 8.5 0  14 8.5 0  14.5 8.5 0  15 8.5 0  15.5 8.5 0  16 8.5 0  16.5 8.5 0  17 8.5 0  17.5 8.5 0  18 8.5 0  18.5 8.5 0  19 8.5 0  19.5 8.5 0  20 8.5 0  0 9 0  0.5 9 0  1 9 0  1.5 9 0  2 9 0  2.5 9 0  3 9 0  3.5 9 0  4 9 0  4.5 9 0  5 9 0  5.5 9 0  6 9 0  6.5 9 0  7 9 0  7.5 9 0  8 9 0  8.5 9 0  9 9 0  9.5 9 0  10 9 0  10.5 9 0  11 9 0  11.5 9 0  12 9 0  12.5 9 0  13 9 0  13.5 9 0  14 9 0  14.5 9 0  15 9 0  15.5 9 0  16 9 0  16.5 9 0  17 9 0  17.5 9 0  18 9 0  18.5 9 0  19 9 0  19.5 9 0  20 9 0  0 9.5 0  0.5 9.5 0  1 9.5 0  1.5 9.5 0  2 9.5 0  2.5 9.5 0  3 9.5 0  3.5 9.5 0  4 9.5 0  4.5 9.5 0  5 9.5 0  5.5 9.5 0  6 9.5 0  6.5 9.5 0  7 9.5 0  7.5 9.5 0  8 9.5 0  8.5 9.5 0  9 9.5 0  9.5 9.5 0  10 9.5 0  10.5 9.5 0  11 9.5 0  11.5 9.5 0  12 9.5 0  12.5 9.5 0  13 9.5 0  13.5 9.5 0  14 9.5 0  14.5 9.5 0  15 9.5 0  15.5 9.5 0  16 9.5 0  16.5 9.5 0  17 9.5 0  17.5 9.5 0  18 9.5 0  18.5 9.5 0  19 9.5 0  19.5 9.5 0  20 9.5 0  0 10 0  0.5 10 0  1 10 0  1.5 10 0  2 10 0  2.5 10 0  3 10 0  3.5 10 0  4 10 0  4.5 10 0  5 10 0  5.5 10 0  6 10 0  6.5 10 0  7 10 0  7.5 10 0  8 10 0  8.5 10 0  9 10 0  9.5 10 0  10 10 0  10.5 10 0  11 10 0  11.5 10 0  12 10 0  12.5 10 0  13 10 0  13.5 10 0  14 10 0  14.5 10 0  15 10 0  15.5 10 0  16 10 0  16.5 10 0  17 10 0  17.5 10 0  18 10 0  18.5 10 0  19 10 0  19.5 10 0  20 10 0  0 10.5 0  0.5 10.5 0  1 10.5 0  1.5 10.5 0  2 10.5 0  2.5 10.5 0  3 10.5 0  3.5 10.5 0  4 10.5 0  4.5 10.5 0  5 10.5 0  5.5 10.5 0  6 10.5 0  6.5 10.5 0  7 10.5 0  7.5 10.5 0  8 10.5 0  8.5 10.5 0  9 10.5 0  9.5 10.5 0  10 10.5 0  10.5 10.5 0  11 10.5 0  11.5 10.5 0  12 10.5 0  12.5 10.5 0  13 10.5 0  13.5 10.5 0  14 10.5 0  14.5 10.5 0  15 10.5 0  15.5 10.5 0  16 10.5 0  16.5 10.5 0  17 10.5 0  17.5 10.5 0  18 10.5 0  18.5 10.5 0  19 10.5 0  19.5 10.5 0  20 10.5 0  0 11 0  0.5 11 0  1 11 0  1.5 11 0  2 11 0  2.5 11 0  3 11 0  3.5 11 0  4 11 0  4.5 11 0  5 11 0  5.5 11 0  6 11 0  6.5 11 0  7 11 0  7.5 11 0  8 11 0  8.5 11 0  9 11 0  9.5 11 0  10 11 0  10.5 11 0  11 11 0  11.5 11 0  12 11 0  12.5 11 0  13 11 0  13.5 11 0  14 11 0  14.5 11 0  15 11 0  15.5 11 0  16 11 0  16.5 11 0  17 11 0  17.5 11 0  18 11 0  18.5 11 0  19 11 0  19.5 11 0  20 11 0  0 11.5 0  0.5 11.5 0  1 11.5 0  1.5 11.5 0  2 11.5 0  2.5 11.5 0  3 11.5 0  3.5 11.5 0  4 11.5 0  4.5 11.5 0  5 11.5 0  5.5 11.5 0  6 11.5 0  6.5 11.5 0  7 11.5 0  7.5 11.5 0  8 11.5 0  8.5 11.5 0  9 11.5 0  9.5 11.5 0  10 11.5 0  10.5 11.5 0  11 11.5 0  11.5 11.5 0  12 11.5 0  12.5 11.5 0  13 11.5 0  13.5 11.5 0  14 11.5 0  14.5 11.5 0  15 11.5 0  15.5 11.5 0  16 11.5 0  16.5 11.5 0  17 11.5 0  17.5 11.5 0  18 11.5 0  18.5 11.5 0  19 11.5 0  19.5 11.5 0  20 11.5 0  0 12 0  0.5 12 0  1 12 0  1.5 12 0  2 12 0  2.5 12 0  3 12 0  3.5 12 0  4 12 0  4.5 12 0  5 12 0  5.5 12 0  6 12 0  6.5 12 0  7 12 0  7.5 12 0  8 12 0  8.5 12 0  9 12 0  9.5 12 0  10 12 0  10.5 12 0  11 12 0  11.5 12 0  12 12 0  12.5 12 0  13 12 0  13.5 12 0  14 12 0  14.5 12 0  
[...]
<PointData  Scalars="f_2975-1"> 
<DataArray  type="Float64"  Name="f_2975-1"  format="ascii">-8.1943552766502681e-01  -8.1943518951127070e-01  -8.1943435778009177e-01  -8.1943290295413762e-01  -8.1943064268405597e-01  -8.1942730733446145e-01  -8.1942250922783666e-01  -8.1941570398302033e-01  -8.1940613906101334e-01  -8.1939278548300398e-01  -8.1937424819359217e-01  -8.1934864966347121e-01  -8.1931348028896989e-01  -8.1926540803415260e-01  -8.1920003864131452e-01  -8.1911161669098120e-01  -8.1899265693392032e-01  -8.1883349478859502e-01  -8.1862174487429673e-01  -8.1834165713863616e-01  -8.1797336176386148e-01  -8.1749199682925222e-01  -8.1686671687581025e-01  -8.1605958622074015e-01  -8.1502436816475154e-01  -8.1370523004520612e-01  -8.1203539413936388e-01  -8.0993577519622517e-01  -8.0731365606270178e-01  -8.0406146233098796e-01  -8.0005570367690471e-01  -7.9515615172727505e-01  -7.8920531965934115e-01  -7.8202829465544110e-01  -7.7343294757698122e-01  -7.6321050028922022e-01  -7.5113636184346522e-01  -7.3697102963323813e-01  -7.2046062179482484e-01  -7.0133598663468510e-01  -6.7930709223322616e-01  -8.1943518951127070e-01  -8.1943490684949694e-01  -8.1943408366446602e-01  -8.1943262565674380e-01  -8.1943035777161177e-01  -8.1942701153032571e-01  -8.1942219882280332e-01  -8.1941537422433086e-01  -8.1940578373114115e-01  -8.1939239647505080e-01  -8.1937381502712003e-01  -8.1934815892048374e-01  -8.1931291496254333e-01  -8.1926474679036132e-01  -8.1919925500356272e-01  -8.1911067816619920e-01  -8.1899152411283427e-01  -8.1883212046740583e-01  -8.1862007326212138e-01  -8.1833962323293374e-01  -8.1797089099316533e-01  -8.1748900507654254e-01  -8.1686311100387643e-01  -8.1605526521947513e-01  -8.1501922502585600e-01  -8.1369915443885987e-01  -8.1202827591748639e-01  -8.0992750867716001e-01  -8.0730414496452507e-01  -8.0405062512181047e-01  -8.0004347901514428e-01  -7.9514250360323058e-01  -7.8919024188825271e-01  -7.8201181467747483e-01  -7.7341513056490974e-01  -7.6319145789338660e-01  -7.5111628116354867e-01  -7.3695027999787766e-01  -7.2044016946673328e-01  -7.0131911695772975e-01  -6.7930709223322616e-01  -8.1943435778009177e-01  -8.1943408366446591e-01  -8.1943326289655505e-01  -8.1943180163111806e-01  -8.1942952672137570e-01  -8.1942617032439025e-01  -8.1942134407124645e-01  -8.1941450172327468e-01  -8.1940488803745759e-01  -8.1939147049656669e-01  -8.1937284957524159e-01  -8.1934714220065807e-01  -8.1931183199200563e-01  -8.1926357874186073e-01  -8.1919797848242382e-01  -8.1910926443798249e-01  -8.1898993831077116e-01  -8.1883032082287199e-01  -8.1861801041739135e-01  -8.1833723971254979e-01  -8.1796812092715310e-01  -8.1748577428354408e-01  -8.1685933755266726e-01  -8.1605086059053678e-01  -8.1501409598789931e-01  -8.1369320573614690e-01  -8.1202141383156823e-01  -8.0991964548306827e-01  -8.0729520425331114e-01  -8.0404054792435031e-01  -8.0003223066863394e-01  -7.9513008141726371e-01  -7.8917668402847163e-01  -7.8199721159177216e-01  -7.7339964242447168e-01  -7.6317534657002373e-01  -7.5109997716435906e-01  -7.3693453196422187e-01  -7.2042637660014741e-01  -7.0130997467947376e-01  -6.7930709223322616e-01  -8.1943290295413762e-01  -8.1943262565674380e-01  -8.1943180163111806e-01  -8.1943033500495688e-01  -8.1942805244294037e-01  -8.1942468601170759e-01  -8.1941984694811154e-01  -8.1941298827382136e-01  -8.1940335366497052e-01  -8.1938990916689591e-01  -8.1937125342195272e-01  -8.1934550107633486e-01  -8.1931013295758637e-01  -8.1926180549290484e-01  -8.1919611071876075e-01  -8.1910727719214094e-01  -8.1898780126145720e-01  -8.1882799763272918e-01  -8.1861545814918590e-01  -8.1833440839420646e-01  -8.1796495335272035e-01  -8.1748220615272282e-01  -8.1685529806408375e-01  -8.1604627361128945e-01  -8.1500888192190646e-01  -8.1368728420488590e-01  -8.1201470726286284e-01  -8.0991208367950873e-01  -8.0728672998985895e-01  -8.0403112362201301e-01  -8.0002184624109285e-01  -7.9511876355147626e-01  -7.8916450755033896e-01  -7.8198431438380500e-01  -7.7338624694171820e-01  -7.6316179381470395e-01  -7.5108678321713296e-01  -7.3692248040757580e-01  -7.2041664782406944e-01  -7.0130422728833852e-01  -6.7930709223322616e-01  -8.1943064268405597e-01  -8.1943035777161177e-01  -8.1942952672137570e-01  -8.1942805244294037e-01  -8.1942576105444165e-01  -8.1942238424434599e-01  -8.1941753276744222e-01  -8.1941065895302478e-01  -8.1940100552772044e-01  -8.1938753729382530e-01  -8.1936885131565707e-01  -8.1934306027773640e-01  -8.1930764260904176e-01  -8.1925925184798520e-01  -8.1919347660468012e-01  -8.1910454143853562e-01  -8.1898493811887529e-01  -8.1882497621593375e-01  -8.1861224195410187e-01  -8.1833095495269159e-01  -8.1796121410555533e-01  -8.1747812663716590e-01  -8.1685081852648644e-01  -8.1604133016584302e-01  -8.1500340838174501e-01  -8.1368121471014854e-01  -8.1200797982170214e-01  -8.0990464472456913e-01  -8.0727854004059585e-01  -8.0402216414496674e-01  -8.0001212783804465e-01  -7.9510833571449457e-01  -7.8915347045230011e-01  -7.8197283357461933e-01  -7.7337457239100582e-01  -7.6315028522454598e-01  -7.5107594282676593e-01  -7.3691298919362047e-01  -7.2040938238207475e-01  -7.0130018723814469e-01  -6.7930709223322616e-01  -8.1942730733446145e-01  -8.1942701153032571e-01  -8.1942617032439025e-01  -8.1942468601170759e-01  -8.1942238424434599e-01  -8.1941899629757398e-01  -8.1941413244640127e-01  -8.1940724439562362e-01  -8.1939757405273161e-01  -8.1938408516634798e-01  -8.1936537347292360e-01  -8.1933955001238545e-01  -8.1930409120766678e-01  -8.1925564818571850e-01  -8.1918980670129182e-01  -8.1910078798799835e-01  -8.1898108001271153e-01  -8.1882098809106019e-01  -8.1860809380829913e-01  -8.1832661188504285e-01  -8.1795663625468584e-01  -8.1747326940602127e-01  -8.1684563319747150e-01  -8.1603576502284880e-01  -8.1499741046419472e-01  -8.1367473232707177e-01  -8.1200096594998217e-01  -8.0989706140516626e-01  -8.0727036387210882e-01  -8.0401339296066143e-01  -8.0000278864870922e-01  -7.9509849401390054e-01  -7.8914324101452171e-01  -7.8196239288766367e-01  -7.7336417273415525e-01  -7.6314026973202354e-01  -7.5106675881180818e-01  -7.3690519184022807e-01  -7.2040361038726142e-01  -7.0129707671860197e-01  -6.7930709223322616e-01  -8.1942250922783666e-01  -8.1942219882280343e-01  -8.1942134407124645e-01  -8.1941984694811154e-01  -8.1941753276744234e-01  -8.1941413244640138e-01  -8.1940925583689050e-01  -8.1940235411046236e-01  -8.1939266849362868e-01  -8.1937916187287307e-01  -8.1936042890829264e-01  -8.1933457931484188e-01  -8.1929908790647099e-01  -8.1925060388284521e-01  -8.1918471072358556e-01  -8.1909562701980043e-01  -8.1897583772599614e-01  -8.1881564479905089e-01  -8.1860262617947410e-01  -8.1832099276727166e-01  -8.1795083467368324e-01  -8.1746725081768778e-01  -8.1683936008904356e-01  -8.1602919797166040e-01  -8.1499050977349297e-01  -8.1366746036366211e-01  -8.1199329030640066e-01  -8.0988895899768132e-01  -8.0726182606369346e-01  -8.0400443176394765e-01  -7.9999344401564476e-01  -7.9508884214921316e-01  -7.8913340353768857e-01  -7.8195254645781120e-01  -7.7335455832109601e-01  -7.6313119982520050e-01  -7.5105861912334360e-01  -7.3689843108039943e-01  -7.2039870774453907e-01  -7.0129447473727846e-01  -6.7930709223322616e-01  -8.1941570398302033e-01  -8.1941537422433086e-01  -8.1941450172327468e-01  -8.1941298827382136e-01  -8.1941065895302490e-01  -8.1940724439562374e-01  -8.1940235411046247e-01  -8.1939543884229726e-01  -8.1938573928349911e-01  -8.1937221765594792e-01  -8.1935346780121887e-01  -8.1932759843749359e-01  -8.1929208317889635e-01  -8.1924356979846868e-01  -8.1917764010245742e-01  -8.1908851074976485e-01  -8.1896866450526351e-01  -8.1880840090101359e-01  -8.1859529526985819e-01  -8.1831355581492871e-01  -8.1794327000935274e-01  -8.1745953440950292e-01  -8.1683146611858615e-01  -8.1602109980872395e-01  -8.1498218145950685e-01  -8.1365887872049469e-01  -8.1198443778588636e-01  -8.0987982737399711e-01  -8.0725242104126882e-01  -8.0399477852251078e-01  -7.9998359363368643e-01  -7.9507887872518512e-01  -7.8912345164236863e-01  -7.8194277826152736e-01  -7.7334519928020584e-01  -7.6312253109501638e-01  -7.5105097382598018e-01  -7.3689218032283033e-01  -7.2039423157391214e-01  -7.0129211501693201e-01  -6.7930709223322616e-01  -8.1940613906101334e-01  -8.1940578373114115e-01  -8.1940488803745770e-01  -8.1940335366497064e-01  -8.1940100552772055e-01  -8.1939757405273161e-01  -8.1939266849362868e-01  -8.1938573928349923e-01  -8.1937602673565557e-01  -8.1936249261401528e-01  -8.1934373021133389e-01  -8.1931784759368520e-01  -8.1928231760723436e-01  -8.1923378712952166e-01  -8.1916783693477591e-01  -8.1907868250997817e-01  -8.1895880531449594e-01  -8.1879850346294059e-01  -8.1858535080307959e-01  -8.1830355406162159e-01  -8.1793319936343689e-01  -8.1744938222060726e-01  -8.1682121924236839e-01  -8.1601074548844410e-01  -8.1497170863632695e-01  -8.1364827987804011e-01  -8.1197371143436770e-01  -8.0986898126576268e-01  -8.0724147617689279e-01  -8.0398377394695941e-01  -7.9997259192658399e-01  -7.9506797194628209e-01  -7.8911276728846913e-01  -7.8193248450691233e-01  -7.7333550839326304e-01  -7.6311369945288510e-01  -7.5104329645560819e-01  -7.3688597761136587e-01  -7.2038982625140002e-01  -7.0128979965138871e-01  -6.7930709223322616e-01  -8.1939278548300398e-01  -8.1939239647505080e-01  -8.1939147049656658e-01  -8.1938990916689602e-01  -8.1938753729382530e-01  -8.1938408516634798e-01  -8.1937916187287319e-01  -8.1937221765594792e-01  -8.1936249261401528e-01  -8.1934894827284177e-01  -8.1933017766507088e-01  -8.1930428857628401e-01  -8.1926875355371298e-01  -8.1922021916024335e-01  -8.1915426584414430e-01  -8.1906510876283911e-01  -8.1894522905603506e-01  -8.1878492455155505e-01  -8.1857176888089500e-01  -8.1828996868435167e-01  -8.1791961022038295e-01  -8.1743578948682305e-01  -8.1680762411807195e-01  -8.1599715099476489e-01  -8.1495812074974494e-01  -8.1363470909563218e-01  -8.1196017486416405e-01  -8.0985550532561557e-01  -8.0722809995433920e-01  -8.0397055321346311e-01  -7.9995960370343833e-01  -7.9505531937778640e-01  -7.8910058438436737e-01  -7.8192094006999635e-01  -7.7332480816261429e-01  -7.6310408521039641e-01  -7.5103504066052595e-01  -7.3687937223368849e-01  -7.2038516517373186e-01  -7.0128735565112565e-01  -6.7930709223322616e-01  -8.1937424819359217e-01  -8.1937381502712003e-01  -8.1937284957524159e-01  -8.1937125342195272e-01  -8.1936885131565707e-01  -8.1936537347292360e-01  -8.1936042890829253e-01  -8.1935346780121887e-01  -8.1934373021133389e-01  -8.1933017766507088e-01  -8.1931140325213070e-01  -8.1928551488997059e-01  -8.1924998535218385e-01  -8.1920146154318163e-01  -8.1913552438954007e-01  -8.1904638968654553e-01  -8.1892653939598736e-01  -8.1876627238005917e-01  -8.1855316355110130e-01  -8.1827142112136309e-01  -8.1790113327386837e-01  -8.1741739837085270e-01  -8.1678933697520362e-01  -8.1597898963468862e-01  -8.1494011162668922e-01  -8.1361688460071424e-01  -8.1194257501492961e-01  -8.0983817992952489e-01  -8.0721111129873346e-01  -8.0395397928334866e-01  -7.9994354184206296e-01  -7.9503989017717724e-01  -7.8908593542245165e-01  -7.8190724890586916e-01  -7.7331228378644812e-01  -7.6309296696942264e-01  -7.5102559363359700e-01  -7.3687187823222389e-01  -7.2037990915965278e-01  -7.0128460848867191e-01  -6.7930709223322616e-01  -8.1934864966347121e-01  -8.1934815892048374e-01  -8.1934714220065807e-01  -8.1934550107633497e-01  -8.1934306027773640e-01  -8.1933955001238545e-01  -8.1933457931484177e-01  -8.1932759843749359e-01  -8.1931784759368509e-01  -8.1930428857628401e-01  -8.1928551488997059e-01  -8.1925963505497823e-01  -8.1922412267745659e-01  -8.1917562576795422e-01  -8.1910972667725990e-01  -8.1902064298688160e-01  -8.1890085884897446e-01  -8.1874067575964327e-01  -8.1852767174513708e-01  -8.1824605864619926e-01  -8.1787592882470483e-01  -8.1739238541473347e-01  -8.1676455440229079e-01  -8.1595448249534841e-01  -8.1491593199609635e-01  -8.1359309262711277e-01  -8.1191924021876494e-01  -8.0981538282295729e-01  -8.0718894538142627e-01  -8.0393255343264669e-01  -7.9992298304570542e-01  -7.9502034644898978e-01  -7.8906757859630339e-01  -7.8189027683098666e-01  -7.7329692127353489e-01  -7.6307946470741095e-01  -7.5101422427893194e-01  -7.3686292905106532e-01  -7.2037367105886696e-01  -7.0128136203351099e-01  -6.7930709223322616e-01  -8.1931348028896989e-01  -8.1931291496254333e-01  -8.1931183199200563e-01  -8.1931013295758637e-01  -8.1930764260904176e-01  -8.1930409120766678e-01  -8.1929908790647099e-01  -8.1929208317889635e-01  -8.1928231760723436e-01  -8.1926875355371298e-01  -8.1924998535218374e-01  -8.1922412267745659e-01  -8.1918864068636255e-01  -8.1914018941043798e-01  -8.1907435376726301e-01  -8.1898535452488930e-01  -8.1886567971074897e-01  -8.1870563544519448e-01  -8.1849280517550238e-01  -8.1821140699266737e-01  -8.1784154035382817e-01  -8.1735831633384914e-01  -8.1673086969528974e-01  -8.1592125674774263e-01  -8.1488325022196995e-01  -8.1356105112702670e-01  -8.1188794751420912e-01  -8.0978496072459316e-01  -8.0715953024823073e-01  -8.0390429765878157e-01  -7.9989605676298192e-01  -7.9499493934882182e-01  -7.8904390165511784e-01  -7.8186856357563439e-01  -7.7327742807006439e-01  -7.6306246943523592e-01  -7.5100002271577537e-01  -7.3685182840372221e-01  -7.2036598038546573e-01  -7.0127737983711214e-01  -6.7930709223322616e-01  -8.1926540803415260e-01  -8.1926474679036132e-01  -8.1926357874186073e-01  -8.1926180549290484e-01  -8.1925925184798520e-01  -8.1925564818571850e-01  -8.1925060388284532e-01  -8.1924356979846868e-01  -8.1923378712952166e-01  -8.1922021916024323e-01  -8.1920146154318152e-01  -8.1917562576795411e-01  -8.1914018941043798e-01  -8.1909180564004491e-01  -8.1902606334882855e-01  -8.1893718823231954e-01  -8.1881767430761909e-01  -8.1865783484183197e-01  -8.1844526165878040e-01  -8.1816418249834999e-01  -8.1779470774432994e-01  -8.1731196063969225e-01  -8.1668508927793171e-01  -8.1587616434623411e-01  -8.1483897385698589e-01  -8.1351773485300038e-01  -8.1184575203171738e-01  -8.0974406388674303e-01  -8.0712012751014439e-01  -8.0386660251984599e-01  -7.9986030122785301e-01  -7.9496137437694869e-01  -7.8901279747578323e-01  -7.8184020962027911e-01  -7.7325213213175259e-01  -7.6304055553619421e-01  -7.5098182709097194e-01  -7.3683769304330149e-01  -7.2035624377318730e-01  -7.0127236491486833e-01  -6.7930709223322616e-01  -8.1920003864131452e-01  -8.1919925500356272e-01  -8.1919797848242382e-01  -8.1919611071876064e-01  -8.1919347660468023e-01  -8.1918980670129193e-01  -8.1918471072358556e-01  -8.1917764010245742e-01  -8.1916783693477579e-01  -8.1915426584414430e-01  -8.1913552438953996e-01  -8.1910972667725979e-01  -8.1907435376726290e-01  -8.1902606334882844e-01  -8.1896045004495133e-01  -8.1887174666906670e-01  -8.1875245591105028e-01  -8.1859290141464891e-01  -8.1838068720127111e-01  -8.1810005510011286e-01  -8.1773113148598320e-01  -8.1724905743093057e-01  -8.1662300054930725e-01  -8.1581505250929864e-01  -8.1477902345304498e-01  -8.1345915332594521e-01  -8.1178877008485806e-01  -8.0968893541458087e-01  -8.0706712912807199e-01  -8.0381603273944457e-01  -7.9981247933224497e-01  -7.9491663902871490e-01  -7.8897150503104685e-01  -7.8180273202492856e-01  -7.7321885414803593e-01  -7.6301187091189793e-01  -7.5095813317495985e-01  -7.3681938331869656e-01  -7.2034369788032016e-01  -7.0126593603163589e-01  -6.7930709223322616e-01  -8.1911161669098120e-01  -8.1911067816619920e-01  -8.1910926443798249e-01  -8.1910727719214094e-01  -8.1910454143853562e-01  -8.1910078798799835e-01  -8.1909562701980043e-01  -8.1908851074976485e-01  -8.1907868250997806e-01  -8.1906510876283900e-01  -8.1904638968654553e-01  -8.1902064298688149e-01  -8.1898535452488930e-01  -8.1893718823231954e-01  -8.1887174666906670e-01  -8.1878327253808136e-01  -8.1866428062312302e-01  -8.1850510909606822e-01  -8.1829337912943623e-01  -8.1801335245159301e-01  -8.1764517812155768e-01  -8.1716402260524112e-01  -8.1653908141156017e-01  -8.1573247624678680e-01  -8.1469804892476982e-01  -8.1338007204243068e-01  -8.1171190641414537e-01  -8.0961464593280186e-01  -8.0699580108210323e-01  -8.0374808164136191e-01  -7.9974834574947129e-01  -7.9485678465644516e-01  -7.8891640812168595e-01  -7.8175288219408412e-01  -7.7317474647811701e-01  -7.6297399914550212e-01  -7.5092698165948268e-01  -7.3679541727653808e-01  -7.2032735159981820e-01  -7.0125759878540983e-01  -6.7930709223322616e-01  -8.1899265693392043e-01  -8.1899152411283427e-01  -8.1898993831077116e-01  -8.1898780126145720e-01  -8.1898493811887518e-01  -8.1898108001271153e-01  -8.1897583772599603e-01  -8.1896866450526351e-01  -8.1895880531449594e-01  -8.1894522905603495e-01  -8.1892653939598736e-01  -8.1890085884897446e-01  -8.1886567971074897e-01  -8.1881767430761909e-01  -8.1875245591105028e-01  -8.1866428062312302e-01  -8.1854567968338376e-01  -8.1838701112313716e-01  -8.1817591967595649e-01  -8.1789669454906377e-01  -8.1752951629499171e-01  -8.1704958682549844e-01  -8.1642614078752629e-01  -8.1562134222682336e-01  -8.1458907775550615e-01  -8.1327366622858799e-01  -8.1160851494042840e-01  -8.0951476305057524e-01  -8.0689996352874604e-01  -8.0365686424337957e-01  -7.9966235545094566e-01  -7.9477665309681500e-01  -7.8884278294307963e-01  -7.8168641727151500e-01  -7.7311609122513192e-01  -7.6292378695455354e-01  -7.5088581740815907e-01  -7.3676386370693425e-01  -7.2030591432566204e-01  -7.0124670980169379e-01  -6.7930709223322616e-01  -8.1883349478859502e-01  -8.1883212046740594e-01  -8.1883032082287210e-01  -8.1882799763272918e-01  -8.1882497621593364e-01  -8.1882098809106008e-01  -8.1881564479905089e-01  -8.1880840090101359e-01  -8.1879850346294059e-01  -8.1878492455155494e-01  -8.1876627238005917e-01  -8.1874067575964327e-01  -8.1870563544519448e-01  -8.1865783484183197e-01  -8.1859290141464891e-01  -8.1850510909606833e-01  -8.1838701112313716e-01  -8.1822899220419154e-01  -8.1801872888761873e-01  -8.1774054769165927e-01  -8.1737467218018989e-01  -8.1689635296563690e-01  -8.1627487879579375e-01  -8.1547247259096511e-01  -8.1444308359998918e-01  -8.1313109565265684e-01  -8.1146998152093797e-01  -8.0938094413621675e-01  -8.0677159603024151e-01  -8.0353473774110340e-01  -7.9954730258898987e-01  -7.9466953739486246e-01  -7.8874448431195154e-01  -7.8159781563866559e-01  -7.7303804873836612e-01  -7.6285712922042959e-01  -7.5083131413653892e-01  -7.3672220899956486e-01  -7.2027770672583014e-01  -7.0123243222844545e-01  -6.7930709223322616e-01  -8.1862174487429684e-01  -8.1862007326212149e-01  -8.1861801041739135e-01  -8.1861545814918590e-01  -8.1861224195410187e-01  -8.1860809380829913e-01  -8.1860262617947399e-01  -8.1859529526985819e-01  -8.1858535080307959e-01  -8.1857176888089489e-01  -8.1855316355110130e-01  -8.1852767174513708e-01  -8.1849280517550249e-01  -8.1844526165878040e-01  -8.1838068720127111e-01  -8.1829337912943623e-01  -8.1817591967595660e-01  -8.1801872888761873e-01  -8.1780952568088849e-01  -8.1753268654248423e-01  -8.1716849298375971e-01  -8.1669226164155506e-01  -8.1607335508600709e-01  -8.1527407710498656e-01  -8.1424846354664071e-01  -8.1294098863277997e-01  -8.1128521672713050e-01  -8.0920244032755073e-01  -8.0660035573347533e-01  -8.0337183728102868e-01  -7.9939387776670379e-01  -7.9452676490034901e-01  -7.8861355925074206e-01  -7.8147992583534898e-01  -7.7293434671064343e-01  -7.6276870285721188e-01  -7.5075915713558727e-01  -7.3666719202161024e-01  -7.2024055004445242e-01  -7.0121368051536836e-01  -6.7930709223322616e-01  -8.1834165713863627e-01  -8.1833962323293385e-01  -8.1833723971254979e-01  -8.1833440839420646e-01  -8.1833095495269148e-01  -8.1832661188504274e-01  -8.1832099276727155e-01  -8.1831355581492871e-01  -8.1830355406162147e-01  -8.1828996868435155e-01  -8.1827142112136309e-01  -8.1824605864619926e-01  -8.1821140699266726e-01  -8.1816418249834999e-01  -8.1810005510011286e-01  -8.1801335245159312e-01  -8.1789669454906389e-01  -8.1774