<?xml version="1.0"?>
<VTKFile type="UnstructuredGrid"  version="0.1"  >
<UnstructuredGrid>
<Piece  NumberOfPoints="1681" NumberOfCells="3200">
<Points>
<DataArray  type="Float64"  NumberOfComponents="3"  format="ascii">0 0 0  0.5 0 0  1 0 0  1.5 0 0  2 0 0  2.5 0 0  3 0 0  3.5 0 0  4 0 0  4.5 0 0  5 0 0  5.5 0 0  6 0 0  6.5 0 0  7 0 0  7.5 0 0  8 0 0  8.5 0 0  9 0 0  9.5 0 0  10 0 0  10.5 0 0  11 0 0  11.5 0 0  12 0 0  12.5 0 0  13 0 0  13.5 0 0  14 0 0  14.5 0 0  15 0 0  15.5 0 0  16 0 0  16.5 0 0  17 0 0  17.5 0 0  18 0 0  18.5 0 0  19 0 0  19.5 0 0  20 0 0  0 0.5 0  0.5 0.5 0  1 0.5 0  1.5 0.5 0  2 0.5 0  2.5 0.5 0  3 0.5 0  3.5 0.5 0  4 0.5 0  4.5 0.5 0  5 0.5 0  5.5 0.5 0  6 0.5 0  6.5 0.5 0  7 0.5 0  7.5 0.5 0  8 0.5 0  8.5 0.5 0  9 0.5 0  9.5 0.5 0  10 0.5 0  10.5 0.5 0  11 0.5 0  11.5 0.5 0  12 0.5 0  12.5 0.5 0  13 0.5 0  13.5 0.5 0  14 0.5 0  14.5 0.5 0  15 0.5 0  15.5 0.5 0  16 0.5 0  16.5 0.5 0  17 0.5 0  17.5 0.5 0  18 0.5 0  18.5 0.5 0  19 0.5 0  19.5 0.5 0  20 0.5 0  0 1 0  0.5 1 0  1 1 0  1.5 1 0  2 1 0  2.5 1 0  3 1 0  3.5 1 0  4 1 0  4.5 1 0  5 1 0  5.5 1 0  6 1 0  6.5 1 0  7 1 0  7.5 1 0  8 1 0  8.5 1 0  9 1 0  9.5 1 0  10 1 0  10.5 1 0  11 1 0  11.5 1 0  12 1 0  12.5 1 0  13 1 0  13.5 1 0  14 1 0  14.5 1 0  15 1 0  15.5 1 0  16 1 0  16.5 1 0  17 1 0  17.5 1 0  18 1 0  18.5 1 0  19 1 0  19.5 1 0  20 1 0  0 1.5 0  0.5 1.5 0  1 1.5 0  1.5 1.5 0  2 1.5 0  2.5 1.5 0  3 1.5 0  3.5 1.5 0  4 1.5 0  4.5 1.5 0  5 1.5 0  5.5 1.5 0  6 1.5 0  6.5 1.5 0  7 1.5 0  7.5 1.5 0  8 1.5 0  8.5 1.5 0  9 1.5 0  9.5 1.5 0  10 1.5 0  10.5 1.5 0  11 1.5 0  11.5 1.5 0  12 1.5 0  12.5 1.5 0  13 1.5 0  13.5 1.5 0  14 1.5 0  14.5 1.5 0  15 1.5 0  15.5 1.5 0  16 1.5 0  16.5 1.5 0  17 1.5 0  17.5 1.5 0  18 1.5 0  18.5 1.5 0  19 1.5 0  19.5 1.5 0  20 1.5 0  0 2 0  0.5 2 0  1 2 0  1.5 2 0  2 2 0  2.5 2 0  3 2 0  3.5 2 0  4 2 0  4.5 2 0  5 2 0  5.5 2 0  6 2 0  6.5 2 0  7 2 0  7.5 2 0  8 2 0  8.5 2 0  9 2 0  9.5 2 0  10 2 0  10.5 2 0  11 2 0  11.5 2 0  12 2 0  12.5 2 0  13 2 0  13.5 2 0  14 2 0  14.5 2 0  15 2 0  15.5 2 0  16 2 0  16.5 2 0  17 2 0  17.5 2 0  18 2 0  18.5 2 0  19 2 0  19.5 2 0  20 2 0  0 2.5 0  0.5 2.5 0  1 2.5 0  1.5 2.5 0  2 2.5 0  2.5 2.5 0  3 2.5 0  3.5 2.5 0  4 2.5 0  4.5 2.5 0  5 2.5 0  5.5 2.5 0  6 2.5 0  6.5 2.5 0  7 2.5 0  7.5 2.5 0  8 2.5 0  8.5 2.5 0  9 2.5 0  9.5 2.5 0  10 2.5 0  10.5 2.5 0  11 2.5 0  11.5 2.5 0  12 2.5 0  12.5 2.5 0  13 2.5 0  13.5 2.5 0  14 2.5 0  14.5 2.5 0  15 2.5 0  15.5 2.5 0  16 2.5 0  16.5 2.5 0  17 2.5 0  17.5 2.5 0  18 2.5 0  18.5 2.5 0  19 2.5 0  19.5 2.5 0  20 2.5 0  0 3 0  0.5 3 0  1 3 0  1.5 3 0  2 3 0  2.5 3 0  3 3 0  3.5 3 0  4 3 0  4.5 3 0  5 3 0  5.5 3 0  6 3 0  6.5 3 0  7 3 0  7.5 3 0  8 3 0  8.5 3 0  9 3 0  9.5 3 0  10 3 0  10.5 3 0  11 3 0  11.5 3 0  12 3 0  12.5 3 0  13 3 0  13.5 3 0  14 3 0  14.5 3 0  15 3 0  15.5 3 0  16 3 0  16.5 3 0  17 3 0  17.5 3 0  18 3 0  18.5 3 0  19 3 0  19.5 3 0  20 3 0  0 3.5 0  0.5 3.5 0  1 3.5 0  1.5 3.5 0  2 3.5 0  2.5 3.5 0  3 3.5 0  3.5 3.5 0  4 3.5 0  4.5 3.5 0  5 3.5 0  5.5 3.5 0  6 3.5 0  6.5 3.5 0  7 3.5 0  7.5 3.5 0  8 3.5 0  8.5 3.5 0  9 3.5 0  9.5 3.5 0  10 3.5 0  10.5 3.5 0  11 3.5 0  11.5 3.5 0  12 3.5 0  12.5 3.5 0  13 3.5 0  13.5 3.5 0  14 3.5 0  14.5 3.5 0  15 3.5 0  15.5 3.5 0  16 3.5 0  16.5 3.5 0  17 3.5 0  17.5 3.5 0  18 3.5 0  18.5 3.5 0  19 3.5 0  19.5 3.5 0  20 3.5 0  0 4 0  0.5 4 0  1 4 0  1.5 4 0  2 4 0  2.5 4 0  3 4 0  3.5 4 0  4 4 0  4.5 4 0  5 4 0  5.5 4 0  6 4 0  6.5 4 0  7 4 0  7.5 4 0  8 4 0  8.5 4 0  9 4 0  9.5 4 0  10 4 0  10.5 4 0  11 4 0  11.5 4 0  12 4 0  12.5 4 0  13 4 0  13.5 4 0  14 4 0  14.5 4 0  15 4 0  15.5 4 0  16 4 0  16.5 4 0  17 4 0  17.5 4 0  18 4 0  18.5 4 0  19 4 0  19.5 4 0  20 4 0  0 4.5 0  0.5 4.5 0  1 4.5 0  1.5 4.5 0  2 4.5 0  2.5 4.5 0  3 4.5 0  3.5 4.5 0  4 4.5 0  4.5 4.5 0  5 4.5 0  5.5 4.5 0  6 4.5 0  6.5 4.5 0  7 4.5 0  7.5 4.5 0  8 4.5 0  8.5 4.5 0  9 4.5 0  9.5 4.5 0  10 4.5 0  10.5 4.5 0  11 4.5 0  11.5 4.5 0  12 4.5 0  12.5 4.5 0  13 4.5 0  13.5 4.5 0  14 4.5 0  14.5 4.5 0  15 4.5 0  15.5 4.5 0  16 4.5 0  16.5 4.5 0  17 4.5 0  17.5 4.5 0  18 4.5 0  18.5 4.5 0  19 4.5 0  19.5 4.5 0  20 4.5 0  0 5 0  0.5 5 0  1 5 0  1.5 5 0  2 5 0  2.5 5 0  3 5 0  3.5 5 0  4 5 0  4.5 5 0  5 5 0  5.5 5 0  6 5 0  6.5 5 0  7 5 0  7.5 5 0  8 5 0  8.5 5 0  9 5 0  9.5 5 0  10 5 0  10.5 5 0  11 5 0  11.5 5 0  12 5 0  12.5 5 0  13 5 0  13.5 5 0  14 5 0  14.5 5 0  15 5 0  15.5 5 0  16 5 0  16.5 5 0  17 5 0  17.5 5 0  18 5 0  18.5 5 0  19 5 0  19.5 5 0  20 5 0  0 5.5 0  0.5 5.5 0  1 5.5 0  1.5 5.5 0  2 5.5 0  2.5 5.5 0  3 5.5 0  3.5 5.5 0  4 5.5 0  4.5 5.5 0  5 5.5 0  5.5 5.5 0  6 5.5 0  6.5 5.5 0  7 5.5 0  7.5 5.5 0  8 5.5 0  8.5 5.5 0  9 5.5 0  9.5 5.5 0  10 5.5 0  10.5 5.5 0  11 5.5 0  11.5 5.5 0  12 5.5 0  12.5 5.5 0  13 5.5 0  13.5 5.5 0  14 5.5 0  14.5 5.5 0  15 5.5 0  15.5 5.5 0  16 5.5 0  16.5 5.5 0  17 5.5 0  17.5 5.5 0  18 5.5 0  18.5 5.5 0  19 5.5 0  19.5 5.5 0  20 5.5 0  0 6 0  0.5 6 0  1 6 0  1.5 6 0  2 6 0  2.5 6 0  3 6 0  3.5 6 0  4 6 0  4.5 6 0  5 6 0  5.5 6 0  6 6 0  6.5 6 0  7 6 0  7.5 6 0  8 6 0  8.5 6 0  9 6 0  9.5 6 0  10 6 0  10.5 6 0  11 6 0  11.5 6 0  12 6 0  12.5 6 0  13 6 0  13.5 6 0  14 6 0  14.5 6 0  15 6 0  15.5 6 0  16 6 0  16.5 6 0  17 6 0  17.5 6 0  18 6 0  18.5 6 0  19 6 0  19.5 6 0  20 6 0  0 6.5 0  0.5 6.5 0  1 6.5 0  1.5 6.5 0  2 6.5 0  2.5 6.5 0  3 6.5 0  3.5 6.5 0  4 6.5 0  4.5 6.5 0  5 6.5 0  5.5 6.5 0  6 6.5 0  6.5 6.5 0  7 6.5 0  7.5 6.5 0  8 6.5 0  8.5 6.5 0  9 6.5 0  9.5 6.5 0  10 6.5 0  10.5 6.5 0  11 6.5 0  11.5 6.5 0  12 6.5 0  12.5 6.5 0  13 6.5 0  13.5 6.5 0  14 6.5 0  14.5 6.5 0  15 6.5 0  15.5 6.5 0  16 6.5 0  16.5 6.5 0  17 6.5 0  17.5 6.5 0  18 6.5 0  18.5 6.5 0  19 6.5 0  19.5 6.5 0  20 6.5 0  0 7 0  0.5 7 0  1 7 0  1.5 7 0  2 7 0  2.5 7 0  3 7 0  3.5 7 0  4 7 0  4.5 7 0  5 7 0  5.5 7 0  6 7 0  6.5 7 0  7 7 0  7.5 7 0  8 7 0  8.5 7 0  9 7 0  9.5 7 0  10 7 0  10.5 7 0  11 7 0  11.5 7 0  12 7 0  12.5 7 0  13 7 0  13.5 7 0  14 7 0  14.5 7 0  15 7 0  15.5 7 0  16 7 0  16.5 7 0  17 7 0  17.5 7 0  18 7 0  18.5 7 0  19 7 0  19.5 7 0  20 7 0  0 7.5 0  0.5 7.5 0  1 7.5 0  1.5 7.5 0  2 7.5 0  2.5 7.5 0  3 7.5 0  3.5 7.5 0  4 7.5 0  4.5 7.5 0  5 7.5 0  5.5 7.5 0  6 7.5 0  6.5 7.5 0  7 7.5 0  7.5 7.5 0  8 7.5 0  8.5 7.5 0  9 7.5 0  9.5 7.5 0  10 7.5 0  10.5 7.5 0  11 7.5 0  11.5 7.5 0  12 7.5 0  12.5 7.5 0  13 7.5 0  13.5 7.5 0  14 7.5 0  14.5 7.5 0  15 7.5 0  15.5 7.5 0  16 7.5 0  16.5 7.5 0  17 7.5 0  17.5 7.5 0  18 7.5 0  18.5 7.5 0  19 7.5 0  19.5 7.5 0  20 7.5 0  0 8 0  0.5 8 0  1 8 0  1.5 8 0  2 8 0  2.5 8 0  3 8 0  3.5 8 0  4 8 0  4.5 8 0  5 8 0  5.5 8 0  6 8 0  6.5 8 0  7 8 0  7.5 8 0  8 8 0  8.5 8 0  9 8 0  9.5 8 0  10 8 0  10.5 8 0  11 8 0  11.5 8 0  12 8 0  12.5 8 0  13 8 0  13.5 8 0  14 8 0  14.5 8 0  15 8 0  15.5 8 0  16 8 0  16.5 8 0  17 8 0  17.5 8 0  18 8 0  18.5 8 0  19 8 0  19.5 8 0  20 8 0  0 8.5 0  0.5 8.5 0  1 8.5 0  1.5 8.5 0  2 8.5 0  2.5 8.5 0  3 8.5 0  3.5 8.5 0  4 8.5 0  4.5 8.5 0  5 8.5 0  5.5 8.5 0  6 8.5 0  6.5 8.5 0  7 8.5 0  7.5 8.5 0  8 8.5 0  8.5 8.5 0  9 8.5 0  9.5 8.5 0  10 8.5 0  10.5 8.5 0  11 8.5 0  11.5 8.5 0  12 8.5 0  12.5 8.5 0  13 8.5 0  13.5 8.5 0  14 8.5 0  14.5 8.5 0  15 8.5 0  15.5 8.5 0  16 8.5 0  16.5 8.5 0  17 8.5 0  17.5 8.5 0  18 8.5 0  18.5 8.5 0  19 8.5 0  19.5 8.5 0  20 8.5 0  0 9 0  0.5 9 0  1 9 0  1.5 9 0  2 9 0  2.5 9 0  3 9 0  3.5 9 0  4 9 0  4.5 9 0  5 9 0  5.5 9 0  6 9 0  6.5 9 0  7 9 0  7.5 9 0  8 9 0  8.5 9 0  9 9 0  9.5 9 0  10 9 0  10.5 9 0  11 9 0  11.5 9 0  12 9 0  12.5 9 0  13 9 0  13.5 9 0  14 9 0  14.5 9 0  15 9 0  15.5 9 0  16 9 0  16.5 9 0  17 9 0  17.5 9 0  18 9 0  18.5 9 0  19 9 0  19.5 9 0  20 9 0  0 9.5 0  0.5 9.5 0  1 9.5 0  1.5 9.5 0  2 9.5 0  2.5 9.5 0  3 9.5 0  3.5 9.5 0  4 9.5 0  4.5 9.5 0  5 9.5 0  5.5 9.5 0  6 9.5 0  6.5 9.5 0  7 9.5 0  7.5 9.5 0  8 9.5 0  8.5 9.5 0  9 9.5 0  9.5 9.5 0  10 9.5 0  10.5 9.5 0  11 9.5 0  11.5 9.5 0  12 9.5 0  12.5 9.5 0  13 9.5 0  13.5 9.5 0  14 9.5 0  14.5 9.5 0  15 9.5 0  15.5 9.5 0  16 9.5 0  16.5 9.5 0  17 9.5 0  17.5 9.5 0  18 9.5 0  18.5 9.5 0  19 9.5 0  19.5 9.5 0  20 9.5 0  0 10 0  0.5 10 0  1 10 0  1.5 10 0  2 10 0  2.5 10 0  3 10 0  3.5 10 0  4 10 0  4.5 10 0  5 10 0  5.5 10 0  6 10 0  6.5 10 0  7 10 0  7.5 10 0  8 10 0  8.5 10 0  9 10 0  9.5 10 0  10 10 0  10.5 10 0  11 10 0  11.5 10 0  12 10 0  12.5 10 0  13 10 0  13.5 10 0  14 10 0  14.5 10 0  15 10 0  15.5 10 0  16 10 0  16.5 10 0  17 10 0  17.5 10 0  18 10 0  18.5 10 0  19 10 0  19.5 10 0  20 10 0  0 10.5 0  0.5 10.5 0  1 10.5 0  1.5 10.5 0  2 10.5 0  2.5 10.5 0  3 10.5 0  3.5 10.5 0  4 10.5 0  4.5 10.5 0  5 10.5 0  5.5 10.5 0  6 10.5 0  6.5 10.5 0  7 10.5 0  7.5 10.5 0  8 10.5 0  8.5 10.5 0  9 10.5 0  9.5 10.5 0  10 10.5 0  10.5 10.5 0  11 10.5 0  11.5 10.5 0  12 10.5 0  12.5 10.5 0  13 10.5 0  13.5 10.5 0  14 10.5 0  14.5 10.5 0  15 10.5 0  15.5 10.5 0  16 10.5 0  16.5 10.5 0  17 10.5 0  17.5 10.5 0  18 10.5 0  18.5 10.5 0  19 10.5 0  19.5 10.5 0  20 10.5 0  0 11 0  0.5 11 0  1 11 0  1.5 11 0  2 11 0  2.5 11 0  3 11 0  3.5 11 0  4 11 0  4.5 11 0  5 11 0  5.5 11 0  6 11 0  6.5 11 0  7 11 0  7.5 11 0  8 11 0  8.5 11 0  9 11 0  9.5 11 0  10 11 0  10.5 11 0  11 11 0  11.5 11 0  12 11 0  12.5 11 0  13 11 0  13.5 11 0  14 11 0  14.5 11 0  15 11 0  15.5 11 0  16 11 0  16.5 11 0  17 11 0  17.5 11 0  18 11 0  18.5 11 0  19 11 0  19.5 11 0  20 11 0  0 11.5 0  0.5 11.5 0  1 11.5 0  1.5 11.5 0  2 11.5 0  2.5 11.5 0  3 11.5 0  3.5 11.5 0  4 11.5 0  4.5 11.5 0  5 11.5 0  5.5 11.5 0  6 11.5 0  6.5 11.5 0  7 11.5 0  7.5 11.5 0  8 11.5 0  8.5 11.5 0  9 11.5 0  9.5 11.5 0  10 11.5 0  10.5 11.5 0  11 11.5 0  11.5 11.5 0  12 11.5 0  12.5 11.5 0  13 11.5 0  13.5 11.5 0  14 11.5 0  14.5 11.5 0  15 11.5 0  15.5 11.5 0  16 11.5 0  16.5 11.5 0  17 11.5 0  17.5 11.5 0  18 11.5 0  18.5 11.5 0  19 11.5 0  19.5 11.5 0  20 11.5 0  0 12 0  0.5 12 0  1 12 0  1.5 12 0  2 12 0  2.5 12 0  3 12 0  3.5 12 0  4 12 0  4.5 12 0  5 12 0  5.5 12 0  6 12 0  6.5 12 0  7 12 0  7.5 12 0  8 12 0  8.5 12 0  9 12 0  9.5 12 0  10 12 0  10.5 12 0  11 12 0  11.5 12 0  12 12 0  12.5 12 0  13 12 0  13.5 12 0  14 12 0  14.5 12 0  
[...]
<PointData  Scalars="f_2975-1"> 
<DataArray  type="Float64"  Name="f_2975-1"  format="ascii">-8.1943281998117734e-01  -8.1943234158838929e-01  -8.1943116772487634e-01  -8.1942912405287049e-01  -8.1942596934246703e-01  -8.1942135025653928e-01  -8.1941476329006180e-01  -8.1940550815045077e-01  -8.1939262660214718e-01  -8.1937482231839864e-01  -8.1935035697464031e-01  -8.1931691703954268e-01  -8.1927144479783931e-01  -8.1920992618763122e-01  -8.1912712713488356e-01  -8.1901626930998517e-01  -8.1886863572801627e-01  -8.1867309650289699e-01  -8.1841554550583784e-01  -8.1807823984711814e-01  -8.1763903617922662e-01  -8.1707052097942068e-01  -8.1633903634688054e-01  -8.1540360851640015e-01  -8.1421479322175916e-01  -8.1271346007674583e-01  -8.1082954694481479e-01  -8.0848082429201440e-01  -8.0557171796961502e-01  -8.0199224568969896e-01  -7.9761712628725390e-01  -7.9230512005309484e-01  -7.8589865099757983e-01  -7.7822374549922169e-01  -7.6909029341980872e-01  -7.5829259308351959e-01  -7.4561007233151388e-01  -7.3080796311470675e-01  -7.1363747664730615e-01  -6.9383440170894561e-01  -6.7111279679012326e-01  -8.1943234158838929e-01  -8.1943194224740545e-01  -8.1943078114588586e-01  -8.1942873384577819e-01  -8.1942556957302792e-01  -8.1942093681145833e-01  -8.1941433169241240e-01  -8.1940505278169162e-01  -8.1939214022082651e-01  -8.1937429560807784e-01  -8.1934977804777043e-01  -8.1931627087482461e-01  -8.1927071260604600e-01  -8.1920908471081599e-01  -8.1912614789305982e-01  -8.1901511781966041e-01  -8.1886727072887966e-01  -8.1867146924231549e-01  -8.1841359914497880e-01  -8.1807590906635175e-01  -8.1763624707237914e-01  -8.1706719133435457e-01  -8.1633507641129865e-01  -8.1539892233998079e-01  -8.1420928064601994e-01  -8.1270701941010026e-01  -8.1082207831069086e-01  -8.0847223357276143e-01  -8.0556192119081749e-01  -8.0198117360501198e-01  -7.9760472884667943e-01  -7.9229137039606790e-01  -7.8588354867004606e-01  -7.7820731891303718e-01  -7.6907260262335786e-01  -7.5827373723878100e-01  -7.4559021756325505e-01  -7.3078744849598987e-01  -7.1361722904046543e-01  -6.9381766032497882e-01  -6.7111279679012326e-01  -8.1943116772487634e-01  -8.1943078114588597e-01  -8.1942962429883126e-01  -8.1942757339903416e-01  -8.1942440047973142e-01  -8.1941975508951348e-01  -8.1941313321987286e-01  -8.1940383259025940e-01  -8.1939089199758430e-01  -8.1937301124930673e-01  -8.1934844719533662e-01  -8.1931488040582912e-01  -8.1926924606564322e-01  -8.1920752168971511e-01  -8.1912446336090139e-01  -8.1901328143551866e-01  -8.1886524616141287e-01  -8.1866921354468347e-01  -8.1841106224316984e-01  -8.1807303343317250e-01  -8.1763296767178739e-01  -8.1706343593037689e-01  -8.1633076634046420e-01  -8.1539397384386780e-01  -8.1420360684916271e-01  -8.1270053300679401e-01  -8.1081469499225489e-01  -8.0846387618727833e-01  -8.0555252458764637e-01  -8.0197069009227762e-01  -7.9759313421322942e-01  -7.9227867058426371e-01  -7.8586978756708192e-01  -7.7819258865485585e-01  -7.6905705997116247e-01  -7.5825763466048968e-01  -7.4557396959643951e-01  -7.3077178126098119e-01  -7.1360351381945974e-01  -6.9380856332405416e-01  -6.7111279679012326e-01  -8.1942912405287049e-01  -8.1942873384577830e-01  -8.1942757339903416e-01  -8.1942551607772240e-01  -8.1942233373115014e-01  -8.1941767592071624e-01  -8.1941103828140016e-01  -8.1940171776082504e-01  -8.1938875199488281e-01  -8.1937083924490806e-01  -8.1934623440655052e-01  -8.1931261564737501e-01  -8.1926691525380702e-01  -8.1920510730022045e-01  -8.1912194385004911e-01  -8.1901063064322477e-01  -8.1886243272510384e-01  -8.1866620036471516e-01  -8.1840780605326002e-01  -8.1806948454267159e-01  -8.1762906995948781e-01  -8.1705912718065410e-01  -8.1632597902026949e-01  -8.1538863642176218e-01  -8.1419764575370657e-01  -8.1269387531042936e-01  -8.1080727188911828e-01  -8.0845562731284026e-01  -8.0554340321342099e-01  -8.0196066923763321e-01  -7.9758221378157390e-01  -7.9226688581329197e-01  -7.8585721949311582e-01  -7.7817937812870863e-01  -7.6904342836601314e-01  -7.5824391725741358e-01  -7.4556067192492803e-01  -7.3075967203704395e-01  -7.1359375615145959e-01  -6.9380280121631355e-01  -6.7111279679012326e-01  -8.1942596934246703e-01  -8.1942556957302792e-01  -8.1942440047973142e-01  -8.1942233373115014e-01  -8.1941914047505193e-01  -8.1941446985964939e-01  -8.1940781701587107e-01  -8.1939847815701172e-01  -8.1938548990487170e-01  -8.1936754919730737e-01  -8.1934290926504538e-01  -8.1930924623136026e-01  -8.1926348991814213e-01  -8.1920161147627635e-01  -8.1911835955664336e-01  -8.1900693598375396e-01  -8.1885860139634414e-01  -8.1866220121341704e-01  -8.1840360272865076e-01  -8.1806503530587682e-01  -8.1762432772397464e-01  -8.1705403987007397e-01  -8.1632049034027288e-01  -8.1538268714908890e-01  -8.1419117564785015e-01  -8.1268682574973716e-01  -8.1079958932483931e-01  -8.0844726762420582e-01  -8.0553433704105515e-01  -8.0195088838429018e-01  -7.9757173882050469e-01  -7.9225577517023826e-01  -7.8584558051666198e-01  -7.7816738108683770e-01  -7.6903132490212989e-01  -7.5823206535518051e-01  -7.4554956878491141e-01  -7.3074999106077232e-01  -7.1358636582824342e-01  -6.9379869649554082e-01  -6.7111279679012326e-01  -8.1942135025653928e-01  -8.1942093681145822e-01  -8.1941975508951348e-01  -8.1941767592071624e-01  -8.1941446985964939e-01  -8.1940978557855726e-01  -8.1940311768815621e-01  -8.1939376173707057e-01  -8.1938075348162276e-01  -8.1936278875534141e-01  -8.1933811941207091e-01  -8.1930441989152791e-01  -8.1925861799113187e-01  -8.1919668246503963e-01  -8.1911335917147021e-01  -8.1900184673665677e-01  -8.1885340220762359e-01  -8.1865686706173402e-01  -8.1839810438689264e-01  -8.1805933921732643e-01  -8.1761839608625875e-01  -8.1704783100733980e-01  -8.1631395945597740e-01  -8.1537578756146134e-01  -8.1418386061621040e-01  -8.1267905100134330e-01  -8.1079131638837432e-01  -8.0843846806824404e-01  -8.0552499770674146e-01  -8.0194101769664661e-01  -7.9756137427055107e-01  -7.9224499208903276e-01  -7.8583450231196927e-01  -7.7815619114795909e-01  -7.6902028026422853e-01  -7.5822151157829587e-01  -7.4553995347381152e-01  -7.3074186833675714e-01  -7.1358037356286719e-01  -6.9379547261508467e-01  -6.7111279679012326e-01  -8.1941476329006169e-01  -8.1941433169241240e-01  -8.1941313321987286e-01  -8.1941103828140016e-01  -8.1940781701587107e-01  -8.1940311768815621e-01  -8.1939643445360832e-01  -8.1938706230290692e-01  -8.1937403629073713e-01  -8.1935605137329248e-01  -8.1933135832312343e-01  -8.1929763026750690e-01  -8.1925179343410726e-01  -8.1918981472679131e-01  -8.1910643785621418e-01  -8.1899485899851299e-01  -8.1884633246083083e-01  -8.1864969672972920e-01  -8.1839081172609807e-01  -8.1805189926273236e-01  -8.1761078077834393e-01  -8.1704000957300182e-01  -8.1630589912909490e-01  -8.1536745474031103e-01  -8.1417522256376673e-01  -8.1267007819884407e-01  -8.1078198565079518e-01  -8.0842876652105777e-01  -8.0551492770550337e-01  -8.0193060274365824e-01  -7.9755066594404145e-01  -7.9223407794272904e-01  -7.8582351460490230e-01  -7.7814531607046877e-01  -7.6900976691304346e-01  -7.5821167906140430e-01  -7.4553119280741453e-01  -7.3073463281821038e-01  -7.1357514728504556e-01  -6.9379270456890785e-01  -6.7111279679012326e-01  -8.1940550815045077e-01  -8.1940505278169162e-01  -8.1940383259025940e-01  -8.1940171776082504e-01  -8.1939847815701172e-01  -8.1939376173707057e-01  -8.1938706230290692e-01  -8.1937767442000220e-01  -8.1936463262258008e-01  -8.1934663123070706e-01  -8.1932192024676298e-01  -8.1928817187651970e-01  -8.1924231125871594e-01  -8.1918030402729458e-01  -8.1909689243341421e-01  -8.1898527100430651e-01  -8.1883669222278976e-01  -8.1863999261009324e-01  -8.1838103004384544e-01  -8.1804202431731898e-01  -8.1760079502522298e-01  -8.1702989401378856e-01  -8.1629563399255334e-01  -8.1535702054308634e-01  -8.1416460165034521e-01  -8.1265925686639662e-01  -8.1077095696357626e-01  -8.0841753390753379e-01  -8.0550350940532811e-01  -8.0191903712584434e-01  -7.9753901764476931e-01  -7.9222244465873282e-01  -7.8581203420376877e-01  -7.7813417340192970e-01  -7.6899919925852833e-01  -7.5820197845169168e-01  -7.4552270239984864e-01  -7.3072773326635432e-01  -7.1357022824060379e-01  -6.9379011806395852e-01  -6.7111279679012326e-01  -8.1939262660214718e-01  -8.1939214022082651e-01  -8.1939089199758430e-01  -8.1938875199488281e-01  -8.1938548990487170e-01  -8.1938075348162265e-01  -8.1937403629073713e-01  -8.1936463262258008e-01  -8.1935157668952519e-01  -8.1933356243609812e-01  -8.1930883942970878e-01  -8.1927507937702926e-01  -8.1922920685001743e-01  -8.1916718684648870e-01  -8.1908376091384805e-01  -8.1897212281547804e-01  -8.1882352422713078e-01  -8.1862680085084871e-01  -8.1836780978472079e-01  -8.1802877016280784e-01  -8.1758750116063739e-01  -8.1701655461587197e-01  -8.1628224387465687e-01  -8.1534357611223185e-01  -8.1415110226537302e-01  -8.1264570669423164e-01  -8.1075736743089044e-01  -8.0840392683303930e-01  -8.0548992086774118e-01  -8.0190552206695354e-01  -7.9752565511701246e-01  -7.9220934349081717e-01  -7.8579933866131912e-01  -7.7812206814473772e-01  -7.6898791252430965e-01  -7.5819178192858638e-01  -7.4551390574902965e-01  -7.3072067094177040e-01  -7.1356523664933458e-01  -6.9378750314861470e-01  -6.7111279679012326e-01  -8.1937482231839864e-01  -8.1937429560807795e-01  -8.1937301124930673e-01  -8.1937083924490806e-01  -8.1936754919730748e-01  -8.1936278875534141e-01  -8.1935605137329237e-01  -8.1934663123070706e-01  -8.1933356243609812e-01  -8.1931553884481434e-01  -8.1929080995910208e-01  -8.1925704745528738e-01  -8.1921117592192660e-01  -8.1914916043388042e-01  -8.1906574269137311e-01  -8.1895411670454654e-01  -8.1880553451265337e-01  -8.1860883232830162e-01  -8.1834986794936126e-01  -8.1801086145896118e-01  -8.1756963331715227e-01  -8.1699873710421689e-01  -8.1626448853846734e-01  -8.1532589803061828e-01  -8.1413352092533531e-01  -8.1262824755743202e-01  -8.1074006398282294e-01  -8.0838682319294441e-01  -8.0547307500864707e-01  -8.0188900963901455e-01  -7.9750957377517140e-01  -7.9219381749120243e-01  -7.8578452330309279e-01  -7.7810815339406381e-01  -7.6897512487626885e-01  -7.5818038328030535e-01  -7.4550418786596651e-01  -7.3071294418282928e-01  -7.1355981227672682e-01  -6.9378467014720335e-01  -6.7111279679012326e-01  -8.1935035697464031e-01  -8.1934977804777043e-01  -8.1934844719533662e-01  -8.1934623440655052e-01  -8.1934290926504538e-01  -8.1933811941207091e-01  -8.1933135832312343e-01  -8.1932192024676298e-01  -8.1930883942970878e-01  -8.1929080995910197e-01  -8.1926608168997972e-01  -8.1923232680249680e-01  -8.1918647057211225e-01  -8.1912447897696483e-01  -8.1904109487078303e-01  -8.1892951370128464e-01  -8.1878098926304865e-01  -8.1858435987582578e-01  -8.1832548583260756e-01  -8.1798659014125685e-01  -8.1754549666885246e-01  -8.1697476295690230e-01  -8.1624070934116122e-01  -8.1530235165128007e-01  -8.1411025165496020e-01  -8.1260530738656067e-01  -8.1071751422716276e-01  -8.0836473654052243e-01  -8.0545153803835157e-01  -8.0186812581144340e-01  -7.9748946681332245e-01  -7.9217463494454465e-01  -7.8576643992248629e-01  -7.7809137374452464e-01  -7.6895988440292740e-01  -7.5816694686801589e-01  -7.4549284487836043e-01  -7.3070399915828443e-01  -7.1355357105196615e-01  -6.9378142229126327e-01  -6.7111279679012326e-01  -8.1931691703954268e-01  -8.1931627087482461e-01  -8.1931488040582912e-01  -8.1931261564737490e-01  -8.1930924623136026e-01  -8.1930441989152780e-01  -8.1929763026750690e-01  -8.1928817187651970e-01  -8.1927507937702926e-01  -8.1925704745528738e-01  -8.1923232680249680e-01  -8.1919859072635171e-01  -8.1915276597897946e-01  -8.1909082042390147e-01  -8.1900749926836192e-01  -8.1889600083867886e-01  -8.1874758238518641e-01  -8.1855108630553919e-01  -8.1829237762922447e-01  -8.1795368478700670e-01  -8.1751283777653361e-01  -8.1694240099726456e-01  -8.1620870239692533e-01  -8.1527076621669126e-01  -8.1407916351444454e-01  -8.1257480262134196e-01  -8.1068769041095501e-01  -8.0833570418917722e-01  -8.0542342236651632e-01  -8.0184106881370942e-01  -7.9746362962016359e-01  -7.9215020029915129e-01  -7.8574361448366636e-01  -7.7807038975321730e-01  -7.6894100008024713e-01  -7.5815044478511118e-01  -7.4547902751879147e-01  -7.3069318106621639e-01  -7.1354606740745319e-01  -6.9377753451542379e-01  -6.7111279679012326e-01  -8.1927144479783931e-01  -8.1927071260604600e-01  -8.1926924606564322e-01  -8.1926691525380702e-01  -8.1926348991814213e-01  -8.1925861799113175e-01  -8.1925179343410715e-01  -8.1924231125871594e-01  -8.1922920685001732e-01  -8.1921117592192660e-01  -8.1918647057211225e-01  -8.1915276597897946e-01  -8.1910699132098785e-01  -8.1904511753839515e-01  -8.1896189366039585e-01  -8.1885052267106340e-01  -8.1870226739565022e-01  -8.1850597679054093e-01  -8.1824752347430441e-01  -8.1790914451904095e-01  -8.1746867961063685e-01  -8.1689870385152397e-01  -8.1616555685273962e-01  -8.1522827541193554e-01  -8.1403744397091427e-01  -8.1253398502564800e-01  -8.1064792038623834e-01  -8.0829714310872947e-01  -8.0538624826269922e-01  -8.0180547741819375e-01  -7.9742983552609981e-01  -7.9211843815630589e-01  -7.8571414002296858e-01  -7.7804348029582948e-01  -7.6891695403926474e-01  -7.5812957955177873e-01  -7.4546167509126504e-01  -7.3067968088862445e-01  -7.1353675619699586e-01  -6.9377273339443735e-01  -6.7111279679012326e-01  -8.1920992618763122e-01  -8.1920908471081599e-01  -8.1920752168971511e-01  -8.1920510730022034e-01  -8.1920161147627624e-01  -8.1919668246503952e-01  -8.1918981472679120e-01  -8.1918030402729447e-01  -8.1916718684648870e-01  -8.1914916043388042e-01  -8.1912447897696483e-01  -8.1909082042390147e-01  -8.1904511753839515e-01  -8.1898334580343246e-01  -8.1890025989200776e-01  -8.1878906967183496e-01  -8.1864104621758937e-01  -8.1844504820456010e-01  -8.1818695951087272e-01  -8.1784903003720943e-01  -8.1740911384367121e-01  -8.1683980187130523e-01  -8.1610745089364112e-01  -8.1517111599961323e-01  -8.1398140081330461e-01  -8.1247924764224178e-01  -8.1059469847547028e-01  -8.0824566667797781e-01  -8.0533676756447992e-01  -8.0175826274122353e-01  -7.9738517687171007e-01  -7.9207664478115547e-01  -7.8567553974427939e-01  -7.7800841833941126e-01  -7.6888579107857424e-01  -7.5810268846667295e-01  -7.4543943590950545e-01  -7.3066247341255364e-01  -7.1352495001490146e-01  -6.9376667537497239e-01  -6.7111279679012326e-01  -8.1912712713488356e-01  -8.1912614789305971e-01  -8.1912446336090128e-01  -8.1912194385004899e-01  -8.1911835955664325e-01  -8.1911335917147010e-01  -8.1910643785621418e-01  -8.1909689243341410e-01  -8.1908376091384805e-01  -8.1906574269137322e-01  -8.1904109487078314e-01  -8.1900749926836203e-01  -8.1896189366039596e-01  -8.1890025989200776e-01  -8.1881736055812082e-01  -8.1870641521477105e-01  -8.1855870658284047e-01  -8.1836310710395532e-01  -8.1810551665932629e-01  -8.1776820344276357e-01  -8.1732904206999157e-01  -8.1676064617650113e-01  -8.1602939713868938e-01  -8.1509437621636682e-01  -8.1390621432832555e-01  -8.1240588166983607e-01  -8.1052344812097454e-01  -8.0817685432785835e-01  -8.0527074167766588e-01  -8.0169539608799212e-01  -7.9732586428206076e-01  -7.9202130045331987e-01  -7.8562459411772467e-01  -7.7796231445343145e-01  -7.6884498022514891e-01  -7.5806762482506329e-01  -7.4541056975390041e-01  -7.3064024245963044e-01  -7.1350976858289206e-01  -6.9375892132521300e-01  -6.7111279679012326e-01  -8.1901626930998506e-01  -8.1901511781966030e-01  -8.1901328143551866e-01  -8.1901063064322466e-01  -8.1900693598375396e-01  -8.1900184673665666e-01  -8.1899485899851288e-01  -8.1898527100430651e-01  -8.1897212281547815e-01  -8.1895411670454665e-01  -8.1892951370128475e-01  -8.1889600083867897e-01  -8.1885052267106340e-01  -8.1878906967183496e-01  -8.1870641521477105e-01  -8.1859579208585709e-01  -8.1844849897227379e-01  -8.1825342726850026e-01  -8.1799649898635296e-01  -8.1766000773292735e-01  -8.1722185680962034e-01  -8.1665469165634275e-01  -8.1592492825162966e-01  -8.1499168475061667e-01  -8.1380563056833322e-01  -8.1230777512816943e-01  -8.1042822725258179e-01  -8.0808496512297812e-01  -8.0518266508752323e-01  -8.0161164430084142e-01  -7.9724697592515037e-01  -7.9194783483569875e-01  -7.8555712463638760e-01  -7.7790142125185779e-01  -7.6879124211767780e-01  -7.5802161039357407e-01  -7.4537282741052091e-01  -7.3061128919338625e-01  -7.1349007713247459e-01  -6.9374890573111314e-01  -6.7111279679012326e-01  -8.1886863572801627e-01  -8.1886727072887955e-01  -8.1886524616141287e-01  -8.1886243272510373e-01  -8.1885860139634414e-01  -8.1885340220762359e-01  -8.1884633246083083e-01  -8.1883669222278976e-01  -8.1882352422713078e-01  -8.1880553451265337e-01  -8.1878098926304865e-01  -8.1874758238518652e-01  -8.1870226739565022e-01  -8.1864104621758937e-01  -8.1855870658284058e-01  -8.1844849897227390e-01  -8.1830174352116281e-01  -8.1810735720304795e-01  -8.1785129204562279e-01  -8.1751587630311684e-01  -8.1707905259431213e-01  -8.1651351018456486e-01  -8.1578571297924229e-01  -8.1485483047494733e-01  -8.1367158585410138e-01  -8.1217704344066222e-01  -8.1030136651685525e-01  -8.0796258547851951e-01  -8.0506542468570819e-01  -8.0150024309240664e-01  -7.9714214749626822e-01  -7.9185033645870229e-01  -7.8546772578639790e-01  -7.7782089088561257e-01  -7.6872033500324188e-01  -7.5796105271747527e-01  -7.4532330178584305e-01  -7.3057341908324969e-01  -7.1346441065284594e-01  -6.9373589891015874e-01  -6.7111279679012326e-01  -8.1867309650289699e-01  -8.1867146924231549e-01  -8.1866921354468347e-01  -8.1866620036471516e-01  -8.1866220121341715e-01  -8.1865686706173402e-01  -8.1864969672972920e-01  -8.1863999261009324e-01  -8.1862680085084871e-01  -8.1860883232830162e-01  -8.1858435987582578e-01  -8.1855108630553919e-01  -8.1850597679054093e-01  -8.1844504820456021e-01  -8.1836310710395532e-01  -8.1825342726850026e-01  -8.1810735720304784e-01  -8.1791384787926080e-01  -8.1765889142628090e-01  -8.1732486263991133e-01  -8.1688975725575319e-01  -8.1632632409524097e-01  -8.1560109258179081e-01  -8.1467330280932138e-01  -8.1349375229921550e-01  -8.1200358163813602e-01  -8.1013303000484704e-01  -8.0780020061343905e-01  -8.0490988452538703e-01  -8.0135249805512687e-01  -7.9700319278784071e-01  -7.9172119645851569e-01  -7.8534943577968441e-01  -7.7771447669527727e-01  -7.6862679118332988e-01  -7.5788132000196184e-01  -7.4525824443581279e-01  -7.3052380266118133e-01  -7.1343088063222027e-01  -6.9371896051996951e-01  -6.7111279679012326e-01  -8.1841554550583784e-01  -8.1841359914497880e-01  -8.1841106224316984e-01  -8.1840780605326002e-01  -8.1840360272865076e-01  -8.1839810438689264e-01  -8.1839081172609807e-01  -8.1838103004384544e-01  -8.1836780978472090e-01  -8.1834986794936138e-01  -8.1832548583260756e-01  -8.1829237762922458e-01  -8.1824752347430441e-01  -8.1818695951087272e-01  -8.1810551665932629e-01  -8.1799649898635296e-01  -8.1785129204562279e-01  -8.1765889142628090e-01  -8.1740534215987770e-01  -8.1707308078130825e-01  -8.1664017390034882e-01  -8.1607945029205264e-01  -8.1535752789633609e-01  -8.1443374280446024e-01  -8.1325899427768777e-01  -8.1177452792738625e-01  -8.0991068804450583e-01  -8.0758567914349055e-01  -8.0470438528076993e-01  -8.0115730255682061e-01  -7.9681964407898653e-01  -7.9155067595288831e-01  -7.8519333574193662e-01  -7.7757416921915368e-01  -7.6850359482963182e-01  -7.5777646545740573e-01  -7.4517284062259181e-01  -7.3045880465393198e-01  -7.1338706056001311e-01  -6.9369688246626338e-01  -6.7111279679012326e-01  -8.1807823984711814e-01  -8.1807590906635164e-01  -8.1807303343317239e-01  -8.1806948454267159e-01  -8.1806503530587682e-01  -8.1805933921732643e-01  -8.1805189926273236e-01  -8.1804202431731909e-01  -8.1802877016280784e-01  -8.1801086145896118e-01  -8.1798659014125685e-01  -8.1795368478700670e-01  -8.1790914451904095e-01  -8.1784903003720943e-01  -8.1776820344276357e-01  -8.1766000773292735e-01  -8.1751587630311684e-01  -8.1732