<?xml version="1.0"?>
<VTKFile type="UnstructuredGrid"  version="0.1"  >
<UnstructuredGrid>
<Piece  NumberOfPoints="1681" NumberOfCells="3200">
<Points>
<DataArray  type="Float64"  NumberOfComponents="3"  format="ascii">0 0 0  0.5 0 0  1 0 0  1.5 0 0  2 0 0  2.5 0 0  3 0 0  3.5 0 0  4 0 0  4.5 0 0  5 0 0  5.5 0 0  6 0 0  6.5 0 0  7 0 0  7.5 0 0  8 0 0  8.5 0 0  9 0 0  9.5 0 0  10 0 0  10.5 0 0  11 0 0  11.5 0 0  12 0 0  12.5 0 0  13 0 0  13.5 0 0  14 0 0  14.5 0 0  15 0 0  15.5 0 0  16 0 0  16.5 0 0  17 0 0  17.5 0 0  18 0 0  18.5 0 0  19 0 0  19.5 0 0  20 0 0  0 0.5 0  0.5 0.5 0  1 0.5 0  1.5 0.5 0  2 0.5 0  2.5 0.5 0  3 0.5 0  3.5 0.5 0  4 0.5 0  4.5 0.5 0  5 0.5 0  5.5 0.5 0  6 0.5 0  6.5 0.5 0  7 0.5 0  7.5 0.5 0  8 0.5 0  8.5 0.5 0  9 0.5 0  9.5 0.5 0  10 0.5 0  10.5 0.5 0  11 0.5 0  11.5 0.5 0  12 0.5 0  12.5 0.5 0  13 0.5 0  13.5 0.5 0  14 0.5 0  14.5 0.5 0  15 0.5 0  15.5 0.5 0  16 0.5 0  16.5 0.5 0  17 0.5 0  17.5 0.5 0  18 0.5 0  18.5 0.5 0  19 0.5 0  19.5 0.5 0  20 0.5 0  0 1 0  0.5 1 0  1 1 0  1.5 1 0  2 1 0  2.5 1 0  3 1 0  3.5 1 0  4 1 0  4.5 1 0  5 1 0  5.5 1 0  6 1 0  6.5 1 0  7 1 0  7.5 1 0  8 1 0  8.5 1 0  9 1 0  9.5 1 0  10 1 0  10.5 1 0  11 1 0  11.5 1 0  12 1 0  12.5 1 0  13 1 0  13.5 1 0  14 1 0  14.5 1 0  15 1 0  15.5 1 0  16 1 0  16.5 1 0  17 1 0  17.5 1 0  18 1 0  18.5 1 0  19 1 0  19.5 1 0  20 1 0  0 1.5 0  0.5 1.5 0  1 1.5 0  1.5 1.5 0  2 1.5 0  2.5 1.5 0  3 1.5 0  3.5 1.5 0  4 1.5 0  4.5 1.5 0  5 1.5 0  5.5 1.5 0  6 1.5 0  6.5 1.5 0  7 1.5 0  7.5 1.5 0  8 1.5 0  8.5 1.5 0  9 1.5 0  9.5 1.5 0  10 1.5 0  10.5 1.5 0  11 1.5 0  11.5 1.5 0  12 1.5 0  12.5 1.5 0  13 1.5 0  13.5 1.5 0  14 1.5 0  14.5 1.5 0  15 1.5 0  15.5 1.5 0  16 1.5 0  16.5 1.5 0  17 1.5 0  17.5 1.5 0  18 1.5 0  18.5 1.5 0  19 1.5 0  19.5 1.5 0  20 1.5 0  0 2 0  0.5 2 0  1 2 0  1.5 2 0  2 2 0  2.5 2 0  3 2 0  3.5 2 0  4 2 0  4.5 2 0  5 2 0  5.5 2 0  6 2 0  6.5 2 0  7 2 0  7.5 2 0  8 2 0  8.5 2 0  9 2 0  9.5 2 0  10 2 0  10.5 2 0  11 2 0  11.5 2 0  12 2 0  12.5 2 0  13 2 0  13.5 2 0  14 2 0  14.5 2 0  15 2 0  15.5 2 0  16 2 0  16.5 2 0  17 2 0  17.5 2 0  18 2 0  18.5 2 0  19 2 0  19.5 2 0  20 2 0  0 2.5 0  0.5 2.5 0  1 2.5 0  1.5 2.5 0  2 2.5 0  2.5 2.5 0  3 2.5 0  3.5 2.5 0  4 2.5 0  4.5 2.5 0  5 2.5 0  5.5 2.5 0  6 2.5 0  6.5 2.5 0  7 2.5 0  7.5 2.5 0  8 2.5 0  8.5 2.5 0  9 2.5 0  9.5 2.5 0  10 2.5 0  10.5 2.5 0  11 2.5 0  11.5 2.5 0  12 2.5 0  12.5 2.5 0  13 2.5 0  13.5 2.5 0  14 2.5 0  14.5 2.5 0  15 2.5 0  15.5 2.5 0  16 2.5 0  16.5 2.5 0  17 2.5 0  17.5 2.5 0  18 2.5 0  18.5 2.5 0  19 2.5 0  19.5 2.5 0  20 2.5 0  0 3 0  0.5 3 0  1 3 0  1.5 3 0  2 3 0  2.5 3 0  3 3 0  3.5 3 0  4 3 0  4.5 3 0  5 3 0  5.5 3 0  6 3 0  6.5 3 0  7 3 0  7.5 3 0  8 3 0  8.5 3 0  9 3 0  9.5 3 0  10 3 0  10.5 3 0  11 3 0  11.5 3 0  12 3 0  12.5 3 0  13 3 0  13.5 3 0  14 3 0  14.5 3 0  15 3 0  15.5 3 0  16 3 0  16.5 3 0  17 3 0  17.5 3 0  18 3 0  18.5 3 0  19 3 0  19.5 3 0  20 3 0  0 3.5 0  0.5 3.5 0  1 3.5 0  1.5 3.5 0  2 3.5 0  2.5 3.5 0  3 3.5 0  3.5 3.5 0  4 3.5 0  4.5 3.5 0  5 3.5 0  5.5 3.5 0  6 3.5 0  6.5 3.5 0  7 3.5 0  7.5 3.5 0  8 3.5 0  8.5 3.5 0  9 3.5 0  9.5 3.5 0  10 3.5 0  10.5 3.5 0  11 3.5 0  11.5 3.5 0  12 3.5 0  12.5 3.5 0  13 3.5 0  13.5 3.5 0  14 3.5 0  14.5 3.5 0  15 3.5 0  15.5 3.5 0  16 3.5 0  16.5 3.5 0  17 3.5 0  17.5 3.5 0  18 3.5 0  18.5 3.5 0  19 3.5 0  19.5 3.5 0  20 3.5 0  0 4 0  0.5 4 0  1 4 0  1.5 4 0  2 4 0  2.5 4 0  3 4 0  3.5 4 0  4 4 0  4.5 4 0  5 4 0  5.5 4 0  6 4 0  6.5 4 0  7 4 0  7.5 4 0  8 4 0  8.5 4 0  9 4 0  9.5 4 0  10 4 0  10.5 4 0  11 4 0  11.5 4 0  12 4 0  12.5 4 0  13 4 0  13.5 4 0  14 4 0  14.5 4 0  15 4 0  15.5 4 0  16 4 0  16.5 4 0  17 4 0  17.5 4 0  18 4 0  18.5 4 0  19 4 0  19.5 4 0  20 4 0  0 4.5 0  0.5 4.5 0  1 4.5 0  1.5 4.5 0  2 4.5 0  2.5 4.5 0  3 4.5 0  3.5 4.5 0  4 4.5 0  4.5 4.5 0  5 4.5 0  5.5 4.5 0  6 4.5 0  6.5 4.5 0  7 4.5 0  7.5 4.5 0  8 4.5 0  8.5 4.5 0  9 4.5 0  9.5 4.5 0  10 4.5 0  10.5 4.5 0  11 4.5 0  11.5 4.5 0  12 4.5 0  12.5 4.5 0  13 4.5 0  13.5 4.5 0  14 4.5 0  14.5 4.5 0  15 4.5 0  15.5 4.5 0  16 4.5 0  16.5 4.5 0  17 4.5 0  17.5 4.5 0  18 4.5 0  18.5 4.5 0  19 4.5 0  19.5 4.5 0  20 4.5 0  0 5 0  0.5 5 0  1 5 0  1.5 5 0  2 5 0  2.5 5 0  3 5 0  3.5 5 0  4 5 0  4.5 5 0  5 5 0  5.5 5 0  6 5 0  6.5 5 0  7 5 0  7.5 5 0  8 5 0  8.5 5 0  9 5 0  9.5 5 0  10 5 0  10.5 5 0  11 5 0  11.5 5 0  12 5 0  12.5 5 0  13 5 0  13.5 5 0  14 5 0  14.5 5 0  15 5 0  15.5 5 0  16 5 0  16.5 5 0  17 5 0  17.5 5 0  18 5 0  18.5 5 0  19 5 0  19.5 5 0  20 5 0  0 5.5 0  0.5 5.5 0  1 5.5 0  1.5 5.5 0  2 5.5 0  2.5 5.5 0  3 5.5 0  3.5 5.5 0  4 5.5 0  4.5 5.5 0  5 5.5 0  5.5 5.5 0  6 5.5 0  6.5 5.5 0  7 5.5 0  7.5 5.5 0  8 5.5 0  8.5 5.5 0  9 5.5 0  9.5 5.5 0  10 5.5 0  10.5 5.5 0  11 5.5 0  11.5 5.5 0  12 5.5 0  12.5 5.5 0  13 5.5 0  13.5 5.5 0  14 5.5 0  14.5 5.5 0  15 5.5 0  15.5 5.5 0  16 5.5 0  16.5 5.5 0  17 5.5 0  17.5 5.5 0  18 5.5 0  18.5 5.5 0  19 5.5 0  19.5 5.5 0  20 5.5 0  0 6 0  0.5 6 0  1 6 0  1.5 6 0  2 6 0  2.5 6 0  3 6 0  3.5 6 0  4 6 0  4.5 6 0  5 6 0  5.5 6 0  6 6 0  6.5 6 0  7 6 0  7.5 6 0  8 6 0  8.5 6 0  9 6 0  9.5 6 0  10 6 0  10.5 6 0  11 6 0  11.5 6 0  12 6 0  12.5 6 0  13 6 0  13.5 6 0  14 6 0  14.5 6 0  15 6 0  15.5 6 0  16 6 0  16.5 6 0  17 6 0  17.5 6 0  18 6 0  18.5 6 0  19 6 0  19.5 6 0  20 6 0  0 6.5 0  0.5 6.5 0  1 6.5 0  1.5 6.5 0  2 6.5 0  2.5 6.5 0  3 6.5 0  3.5 6.5 0  4 6.5 0  4.5 6.5 0  5 6.5 0  5.5 6.5 0  6 6.5 0  6.5 6.5 0  7 6.5 0  7.5 6.5 0  8 6.5 0  8.5 6.5 0  9 6.5 0  9.5 6.5 0  10 6.5 0  10.5 6.5 0  11 6.5 0  11.5 6.5 0  12 6.5 0  12.5 6.5 0  13 6.5 0  13.5 6.5 0  14 6.5 0  14.5 6.5 0  15 6.5 0  15.5 6.5 0  16 6.5 0  16.5 6.5 0  17 6.5 0  17.5 6.5 0  18 6.5 0  18.5 6.5 0  19 6.5 0  19.5 6.5 0  20 6.5 0  0 7 0  0.5 7 0  1 7 0  1.5 7 0  2 7 0  2.5 7 0  3 7 0  3.5 7 0  4 7 0  4.5 7 0  5 7 0  5.5 7 0  6 7 0  6.5 7 0  7 7 0  7.5 7 0  8 7 0  8.5 7 0  9 7 0  9.5 7 0  10 7 0  10.5 7 0  11 7 0  11.5 7 0  12 7 0  12.5 7 0  13 7 0  13.5 7 0  14 7 0  14.5 7 0  15 7 0  15.5 7 0  16 7 0  16.5 7 0  17 7 0  17.5 7 0  18 7 0  18.5 7 0  19 7 0  19.5 7 0  20 7 0  0 7.5 0  0.5 7.5 0  1 7.5 0  1.5 7.5 0  2 7.5 0  2.5 7.5 0  3 7.5 0  3.5 7.5 0  4 7.5 0  4.5 7.5 0  5 7.5 0  5.5 7.5 0  6 7.5 0  6.5 7.5 0  7 7.5 0  7.5 7.5 0  8 7.5 0  8.5 7.5 0  9 7.5 0  9.5 7.5 0  10 7.5 0  10.5 7.5 0  11 7.5 0  11.5 7.5 0  12 7.5 0  12.5 7.5 0  13 7.5 0  13.5 7.5 0  14 7.5 0  14.5 7.5 0  15 7.5 0  15.5 7.5 0  16 7.5 0  16.5 7.5 0  17 7.5 0  17.5 7.5 0  18 7.5 0  18.5 7.5 0  19 7.5 0  19.5 7.5 0  20 7.5 0  0 8 0  0.5 8 0  1 8 0  1.5 8 0  2 8 0  2.5 8 0  3 8 0  3.5 8 0  4 8 0  4.5 8 0  5 8 0  5.5 8 0  6 8 0  6.5 8 0  7 8 0  7.5 8 0  8 8 0  8.5 8 0  9 8 0  9.5 8 0  10 8 0  10.5 8 0  11 8 0  11.5 8 0  12 8 0  12.5 8 0  13 8 0  13.5 8 0  14 8 0  14.5 8 0  15 8 0  15.5 8 0  16 8 0  16.5 8 0  17 8 0  17.5 8 0  18 8 0  18.5 8 0  19 8 0  19.5 8 0  20 8 0  0 8.5 0  0.5 8.5 0  1 8.5 0  1.5 8.5 0  2 8.5 0  2.5 8.5 0  3 8.5 0  3.5 8.5 0  4 8.5 0  4.5 8.5 0  5 8.5 0  5.5 8.5 0  6 8.5 0  6.5 8.5 0  7 8.5 0  7.5 8.5 0  8 8.5 0  8.5 8.5 0  9 8.5 0  9.5 8.5 0  10 8.5 0  10.5 8.5 0  11 8.5 0  11.5 8.5 0  12 8.5 0  12.5 8.5 0  13 8.5 0  13.5 8.5 0  14 8.5 0  14.5 8.5 0  15 8.5 0  15.5 8.5 0  16 8.5 0  16.5 8.5 0  17 8.5 0  17.5 8.5 0  18 8.5 0  18.5 8.5 0  19 8.5 0  19.5 8.5 0  20 8.5 0  0 9 0  0.5 9 0  1 9 0  1.5 9 0  2 9 0  2.5 9 0  3 9 0  3.5 9 0  4 9 0  4.5 9 0  5 9 0  5.5 9 0  6 9 0  6.5 9 0  7 9 0  7.5 9 0  8 9 0  8.5 9 0  9 9 0  9.5 9 0  10 9 0  10.5 9 0  11 9 0  11.5 9 0  12 9 0  12.5 9 0  13 9 0  13.5 9 0  14 9 0  14.5 9 0  15 9 0  15.5 9 0  16 9 0  16.5 9 0  17 9 0  17.5 9 0  18 9 0  18.5 9 0  19 9 0  19.5 9 0  20 9 0  0 9.5 0  0.5 9.5 0  1 9.5 0  1.5 9.5 0  2 9.5 0  2.5 9.5 0  3 9.5 0  3.5 9.5 0  4 9.5 0  4.5 9.5 0  5 9.5 0  5.5 9.5 0  6 9.5 0  6.5 9.5 0  7 9.5 0  7.5 9.5 0  8 9.5 0  8.5 9.5 0  9 9.5 0  9.5 9.5 0  10 9.5 0  10.5 9.5 0  11 9.5 0  11.5 9.5 0  12 9.5 0  12.5 9.5 0  13 9.5 0  13.5 9.5 0  14 9.5 0  14.5 9.5 0  15 9.5 0  15.5 9.5 0  16 9.5 0  16.5 9.5 0  17 9.5 0  17.5 9.5 0  18 9.5 0  18.5 9.5 0  19 9.5 0  19.5 9.5 0  20 9.5 0  0 10 0  0.5 10 0  1 10 0  1.5 10 0  2 10 0  2.5 10 0  3 10 0  3.5 10 0  4 10 0  4.5 10 0  5 10 0  5.5 10 0  6 10 0  6.5 10 0  7 10 0  7.5 10 0  8 10 0  8.5 10 0  9 10 0  9.5 10 0  10 10 0  10.5 10 0  11 10 0  11.5 10 0  12 10 0  12.5 10 0  13 10 0  13.5 10 0  14 10 0  14.5 10 0  15 10 0  15.5 10 0  16 10 0  16.5 10 0  17 10 0  17.5 10 0  18 10 0  18.5 10 0  19 10 0  19.5 10 0  20 10 0  0 10.5 0  0.5 10.5 0  1 10.5 0  1.5 10.5 0  2 10.5 0  2.5 10.5 0  3 10.5 0  3.5 10.5 0  4 10.5 0  4.5 10.5 0  5 10.5 0  5.5 10.5 0  6 10.5 0  6.5 10.5 0  7 10.5 0  7.5 10.5 0  8 10.5 0  8.5 10.5 0  9 10.5 0  9.5 10.5 0  10 10.5 0  10.5 10.5 0  11 10.5 0  11.5 10.5 0  12 10.5 0  12.5 10.5 0  13 10.5 0  13.5 10.5 0  14 10.5 0  14.5 10.5 0  15 10.5 0  15.5 10.5 0  16 10.5 0  16.5 10.5 0  17 10.5 0  17.5 10.5 0  18 10.5 0  18.5 10.5 0  19 10.5 0  19.5 10.5 0  20 10.5 0  0 11 0  0.5 11 0  1 11 0  1.5 11 0  2 11 0  2.5 11 0  3 11 0  3.5 11 0  4 11 0  4.5 11 0  5 11 0  5.5 11 0  6 11 0  6.5 11 0  7 11 0  7.5 11 0  8 11 0  8.5 11 0  9 11 0  9.5 11 0  10 11 0  10.5 11 0  11 11 0  11.5 11 0  12 11 0  12.5 11 0  13 11 0  13.5 11 0  14 11 0  14.5 11 0  15 11 0  15.5 11 0  16 11 0  16.5 11 0  17 11 0  17.5 11 0  18 11 0  18.5 11 0  19 11 0  19.5 11 0  20 11 0  0 11.5 0  0.5 11.5 0  1 11.5 0  1.5 11.5 0  2 11.5 0  2.5 11.5 0  3 11.5 0  3.5 11.5 0  4 11.5 0  4.5 11.5 0  5 11.5 0  5.5 11.5 0  6 11.5 0  6.5 11.5 0  7 11.5 0  7.5 11.5 0  8 11.5 0  8.5 11.5 0  9 11.5 0  9.5 11.5 0  10 11.5 0  10.5 11.5 0  11 11.5 0  11.5 11.5 0  12 11.5 0  12.5 11.5 0  13 11.5 0  13.5 11.5 0  14 11.5 0  14.5 11.5 0  15 11.5 0  15.5 11.5 0  16 11.5 0  16.5 11.5 0  17 11.5 0  17.5 11.5 0  18 11.5 0  18.5 11.5 0  19 11.5 0  19.5 11.5 0  20 11.5 0  0 12 0  0.5 12 0  1 12 0  1.5 12 0  2 12 0  2.5 12 0  3 12 0  3.5 12 0  4 12 0  4.5 12 0  5 12 0  5.5 12 0  6 12 0  6.5 12 0  7 12 0  7.5 12 0  8 12 0  8.5 12 0  9 12 0  9.5 12 0  10 12 0  10.5 12 0  11 12 0  11.5 12 0  12 12 0  12.5 12 0  13 12 0  13.5 12 0  14 12 0  14.5 12 0  
[...]
<PointData  Scalars="f_826-1"> 
<DataArray  type="Float64"  Name="f_826-1"  format="ascii">-8.1448222162347583e-01  -8.1442547613102689e-01  -8.1429024735951516e-01  -8.1406812857559541e-01  -8.1375220549255078e-01  -8.1333429993497741e-01  -8.1280421387338664e-01  -8.1214942872928331e-01  -8.1135490974642199e-01  -8.1040292924841262e-01  -8.0927288604199255e-01  -8.0794111535601454e-01  -8.0638068911677885e-01  -8.0456120843830126e-01  -8.0244859118609824e-01  -8.0000485800741472e-01  -7.9718792050609044e-01  -7.9395137532168025e-01  -7.9024430773405485e-01  -7.8601110800783003e-01  -7.8119130294226580e-01  -7.7571940390382799e-01  -7.6952477086323767e-01  -7.6253148947108773e-01  -7.5465825476716653e-01  -7.4581825043192906e-01  -7.3591900613985894e-01  -7.2486220696582582e-01  -7.1254341703403523e-01  -6.9885166330637427e-01  -6.8366880238485173e-01  -6.6686855983268734e-01  -6.4831508164152152e-01  -6.2786076021444515e-01  -6.0534297254397462e-01  -5.8057915707605035e-01  -5.5335927625016046e-01  -5.2343397513765311e-01  -4.9049515884622819e-01  -4.5414176612506202e-01  -4.1381191987669363e-01  -8.1442547613102689e-01  -8.1437886538712889e-01  -8.1424604487521879e-01  -8.1402455756184122e-01  -8.1370881945074180e-01  -8.1329098051335391e-01  -8.1276093537658567e-01  -8.1210619651275961e-01  -8.1131174191448774e-01  -8.1035985050028658e-01  -8.0922992541428196e-01  -8.0789830538425766e-01  -8.0633806556357146e-01  -8.0451881025138505e-01  -8.0240646053386422e-01  -7.9996304031176557e-01  -7.9714646442313664e-01  -7.9391033263372468e-01  -7.9020373312109193e-01  -7.8597105866707084e-01  -7.8115183802137822e-01  -7.7568058370788251e-01  -7.6948665578626563e-01  -7.6249413858953641e-01  -7.5462172401241945e-01  -7.4578259022939197e-01  -7.3588425835811255e-01  -7.2482840095352263e-01  -7.1251056442276772e-01  -6.9881975110620553e-01  -6.8363778366793992e-01  -6.6683834095321592e-01  -6.4828550445159272e-01  -6.2783157719452165e-01  -6.0531381283483443e-01  -5.8054948526902628e-01  -5.5332836753858683e-01  -5.2340103130614479e-01  -4.9046014081622247e-01  -4.5410956316348394e-01  -4.1381191987669363e-01  -8.1429024735951516e-01  -8.1424604487521879e-01  -8.1411487991669851e-01  -8.1389432513574589e-01  -8.1357919146041147e-01  -8.1316185498680893e-01  -8.1263231962467508e-01  -8.1197815199674417e-01  -8.1118436008180772e-01  -8.1023324224093063e-01  -8.0910421641568853e-01  -8.0777363407590308e-01  -8.0621458219615072e-01  -8.0439667643355739e-01  -8.0228584888705934e-01  -7.9984413405723143e-01  -7.9702945678959169e-01  -7.9379542601243502e-01  -7.9009113791702246e-01  -7.8586099180856950e-01  -7.8104452110057010e-01  -7.7557624073119635e-01  -7.6938551051973381e-01  -7.6239641148641146e-01  -7.5452762871053336e-01  -7.4569232960164600e-01  -7.3579802009089523e-01  -7.2474635261525844e-01  -7.1243284797232298e-01  -6.9874647679188850e-01  -6.8356902331940006e-01  -6.6677412086821641e-01  -6.4822579868099961e-01  -6.2777630369318282e-01  -6.0526283940358183e-01  -5.8050266395876560e-01  -5.5328564653036949e-01  -5.2336276837124496e-01  -4.9042790968475658e-01  -4.5408800742645644e-01  -4.1381191987669363e-01  -8.1406812857559530e-01  -8.1402455756184122e-01  -8.1389432513574578e-01  -8.1367463822299835e-01  -8.1336032122039037e-01  -8.1294383001171644e-01  -8.1241523584467146e-01  -8.1176215303549271e-01  -8.1096962389398952e-01  -8.1001997362000810e-01  -8.0889264314934650e-01  -8.0756400507428527e-01  -8.0600716657288241e-01  -8.0419176294647288e-01  -8.0208374538868876e-01  -7.9964516673944142e-01  -7.9683396908262627e-01  -7.9360377704433505e-01  -7.8990370047016856e-01  -7.8567814973385697e-01  -7.8086666617059131e-01  -7.7540376893381080e-01  -7.6921881781346224e-01  -7.6223588905954487e-01  -7.5437365780699972e-01  -7.4554527599937748e-01  -7.3565822834516581e-01  -7.2461414021634840e-01  -7.1230849962770704e-01  -6.9863023915760869e-01  -6.8346110073579791e-01  -6.6667467313196183e-01  -6.4813494287756701e-01  -6.2769412416796744e-01  -6.0518941412797833e-01  -5.8043812372924108e-01  -5.5323029826595371e-01  -5.2331733636712663e-01  -4.9039396688585618e-01  -4.5406860609701116e-01  -4.1381191987669363e-01  -8.1375220549255067e-01  -8.1370881945074169e-01  -8.1357919146041136e-01  -8.1336032122039037e-01  -8.1304697844233731e-01  -8.1263163360202140e-01  -8.1210439240145860e-01  -8.1145290535815451e-01  -8.1066224843049639e-01  -8.0971477801861713e-01  -8.0858996476503830e-01  -8.0726421023491424e-01  -8.0571065022026356e-01  -8.0389894831141351e-01  -8.0179508343972761e-01  -7.9936113521364272e-01  -7.9655507095802958e-01  -7.9333053835262923e-01  -7.8963666738049587e-01  -7.8541788486851505e-01  -7.8061374414345497e-01  -7.7515877113409515e-01  -7.6898232649183318e-01  -7.6200848081106376e-01  -7.5415589658664517e-01  -7.4533770585241887e-01  -7.3546136608999502e-01  -7.2442846838907793e-01  -7.1213446010108050e-01  -6.9846822801056785e-01  -6.8331146522797548e-01  -6.6653771212466228e-01  -6.4801091290062995e-01  -6.2758325481001165e-01  -6.0509193884663370e-01  -5.8035433575030348e-01  -5.5316064539773413e-01  -5.2326256986064390e-01  -4.9035534494058092e-01  -4.5404807647790812e-01  -4.1381191987669363e-01  -8.1333429993497730e-01  -8.1329098051335391e-01  -8.1316185498680893e-01  -8.1294383001171633e-01  -8.1263163360202140e-01  -8.1221773524385887e-01  -8.1169226114124216e-01  -8.1104289166657539e-01  -8.1025473638285261e-01  -8.0931018694398527e-01  -8.0818875023317327e-01  -8.0686686480446168e-01  -8.0531770395603486e-01  -8.0351096893754259e-01  -8.0141267596528787e-01  -7.9898494087696958e-01  -7.9618576535873342e-01  -7.9296882866755536e-01  -7.8928328858998942e-01  -7.8507359495276152e-01  -7.8027931824627850e-01  -7.7483499473411754e-01  -7.6866998766873362e-01  -7.6170836174810808e-01  -7.5386876451005136e-01  -7.4506430367459908e-01  -7.3520240309995877e-01  -7.2418461142504009e-01  -7.1190632575860258e-01  -6.9825637660378992e-01  -6.8311639746335584e-01  -6.6635986981330053e-01  -6.4785068558700654e-01  -6.2744099498490058e-01  -6.0496798941831409e-01  -5.8024907439646345e-01  -5.5307455033998365e-01  -5.2319630765152725e-01  -4.9030986494630480e-01  -4.5402464725906500e-01  -4.1381191987669363e-01  -8.1280421387338653e-01  -8.1276093537658567e-01  -8.1263231962467497e-01  -8.1241523584467146e-01  -8.1210439240145860e-01  -8.1169226114124216e-01  -8.1116898727266140e-01  -8.1052228084878031e-01  -8.0973728773865739e-01  -8.0879644022000452e-01  -8.0767928883565554e-01  -8.0636231801268221e-01  -8.0481874844133017e-01  -8.0301832955061170e-01  -8.0092712568324120e-01  -7.9850729977947432e-01  -7.9571689850576444e-01  -7.9250964276878522e-01  -7.8883472738333382e-01  -7.8463663324559696e-01  -7.7985495461708076e-01  -7.7442424294472978e-01  -7.6827386689808574e-01  -7.6132788582672373e-01  -7.5350493041080602e-01  -7.4471807959891800e-01  -7.3487471659075077e-01  -7.2387633804055884e-01  -7.1161827896009833e-01  -6.9798929965278522e-01  -6.8287095830382871e-01  -6.6613666014339923e-01  -6.4765022561020702e-01  -6.2726374564869025e-01  -6.0481437419934336e-01  -5.8011951259363059e-01  -5.5296950269336909e-01  -5.2311633124239409e-01  -4.9025566402481363e-01  -4.5399708407618533e-01  -4.1381191987669363e-01  -8.1214942872928331e-01  -8.1210619651275950e-01  -8.1197815199674406e-01  -8.1176215303549271e-01  -8.1145290535815451e-01  -8.1104289166657539e-01  -8.1052228084878031e-01  -8.0987881697474595e-01  -8.0909768783066760e-01  -8.0816137364486706e-01  -8.0704947757319401e-01  -8.0573854022551605e-01  -8.0420184104242465e-01  -8.0240918973534825e-01  -8.0032671132381039e-01  -7.9791662854841128e-01  -7.9513704558977261e-01  -7.9194173704614057e-01  -7.8827994596438333e-01  -7.8409619431454980e-01  -7.7933010856382490e-01  -7.7391626183746998e-01  -7.6778403242075322e-01  -7.6085747588858965e-01  -7.5305520472842558e-01  -7.4429026465107673e-01  -7.3446999045408112e-01  -7.2349581572588062e-01  -7.1126299898686873e-01  -6.9766021272156464e-01  -6.8256891905447026e-01  -6.6586242311707600e-01  -6.4740444665485053e-01  -6.2704699008734655e-01  -6.0462713304267912e-01  -5.7996222775585327e-01  -5.5284260122686779e-01  -5.2302026643037125e-01  -4.9019095715505967e-01  -4.5396435688442788e-01  -4.1381191987669363e-01  -8.1135490974642188e-01  -8.1131174191448763e-01  -8.1118436008180772e-01  -8.1096962389398952e-01  -8.1066224843049639e-01  -8.1025473638285261e-01  -8.0973728773865739e-01  -8.0909768783066760e-01  -8.0832117446382989e-01  -8.0739028523978529e-01  -8.0628468676342091e-01  -8.0498098797036677e-01  -8.0345254030016722e-01  -8.0166922785280903e-01  -7.9959725101029178e-01  -7.9719890727363396e-01  -7.9443237323803717e-01  -7.9125149166918940e-01  -7.8760556750181476e-01  -7.8343917619235526e-01  -7.7869198713842780e-01  -7.7329860372430637e-01  -7.6718841983241237e-01  -7.6028549020671343e-01  -7.5250840864412827e-01  -7.4377018332798972e-01  -7.3397809229295286e-01  -7.2303349343603562e-01  -7.1083155179339652e-01  -6.9726083065305577e-01  -6.8220267035895188e-01  -6.6553024593644228e-01  -6.4710714614007647e-01  -6.2678524214146236e-01  -6.0440149580941704e-01  -5.7977316179248517e-01  -5.5269049899097378e-01  -5.2290549144457099e-01  -4.9011389411575051e-01  -4.5392548073622108e-01  -4.1381191987669363e-01  -8.1040292924841251e-01  -8.1035985050028647e-01  -8.1023324224093063e-01  -8.1001997362000810e-01  -8.0971477801861713e-01  -8.0931018694398538e-01  -8.0879644022000452e-01  -8.0816137364486706e-01  -8.0739028523978529e-01  -8.0646578148666115e-01  -8.0536760536023422e-01  -8.0407244840936931e-01  -8.0255374958017034e-01  -8.0078148387527692e-01  -7.9872194429433840e-01  -7.9633752078310716e-01  -7.9358648010697841e-01  -7.9042275062181411e-01  -7.8679571579020735e-01  -7.8265001991982619e-01  -7.7792538889942653e-01  -7.7255646757315843e-01  -7.6647267369259264e-01  -7.5959806594870438e-01  -7.5185122019089867e-01  -7.4314510328928418e-01  -7.3338692777817660e-01  -7.2247796184460433e-01  -7.1031325752408625e-01  -6.9678124380270423e-01  -6.8176310858854994e-01  -6.6513186076324138e-01  -6.4675091496523940e-01  -6.2647196734923494e-01  -6.0413181229999779e-01  -5.7954755441136097e-01  -5.5250933171212147e-01  -5.2276905150295672e-01  -4.9002245845345682e-01  -4.5387942436099848e-01  -4.1381191987669363e-01  -8.0927288604199255e-01  -8.0922992541428185e-01  -8.0910421641568853e-01  -8.0889264314934650e-01  -8.0858996476503842e-01  -8.0818875023317327e-01  -8.0767928883565554e-01  -8.0704947757319401e-01  -8.0628468676342091e-01  -8.0536760536023422e-01  -8.0427806787427070e-01  -8.0299286516804480e-01  -8.0148554180306242e-01  -7.9972618300422293e-01  -7.9768119465773413e-01  -7.9531308004968482e-01  -7.9258021725392858e-01  -7.8943664115098688e-01  -7.8583183395320544e-01  -7.8171052775989791e-01  -7.7701252198664383e-01  -7.7167251740039411e-01  -7.6561996681346300e-01  -7.5877894007402846e-01  -7.5106799761503973e-01  -7.4240006218811738e-01  -7.3268227210072601e-01  -7.2181579070338442e-01  -7.0969553516637562e-01  -6.9620977140758233e-01  -6.8123949927503735e-01  -6.6465751931004302e-01  -6.4632702383847629e-01  -6.2609948073668875e-01  -6.0381146002541408e-01  -5.7927985800936710e-01  -5.5229463596143313e-01  -5.2260757725268658e-01  -4.8991438883874983e-01  -4.5382505186877375e-01  -4.1381191987669363e-01  -8.0794111535601454e-01  -8.0789830538425766e-01  -8.0777363407590308e-01  -8.0756400507428527e-01  -8.0726421023491435e-01  -8.0686686480446179e-01  -8.0636231801268232e-01  -8.0573854022551605e-01  -8.0498098797036677e-01  -8.0407244840936931e-01  -8.0299286516804480e-01  -8.0171914779489584e-01  -8.0022496751117878e-01  -7.9848054228806931e-01  -7.9645241463871919e-01  -7.9410322581018622e-01  -7.9139149027364097e-01  -7.8827137450036810e-01  -7.8469248392414082e-01  -7.8059966166161732e-01  -7.7593280190800318e-01  -7.7062667983983335e-01  -7.6461079820633415e-01  -7.5780924840332575e-01  -7.5014058047401044e-01  -7.4151767186796069e-01  -7.3184757849767568e-01  -7.2103134306889938e-01  -7.0896372395246599e-01  -6.9553279167671378e-01  -6.8061931734308023e-01  -6.6409584447031100e-01  -6.4582528718816656e-01  -6.2565882333550926e-01  -6.0343273295880495e-01  -5.7896363762463676e-01  -5.5204125907513779e-01  -5.2241720455698526e-01  -4.8978711247453072e-01  -4.5376108089003103e-01  -4.1381191987669363e-01  -8.0638068911677885e-01  -8.0633806556357135e-01  -8.0621458219615072e-01  -8.0600716657288229e-01  -8.0571065022026367e-01  -8.0531770395603486e-01  -8.0481874844133017e-01  -8.0420184104242465e-01  -8.0345254030016722e-01  -8.0255374958017034e-01  -8.0148554180306242e-01  -8.0022496751117878e-01  -7.9874584890111988e-01  -7.9701856282376582e-01  -7.9500981610399590e-01  -7.9268241683624163e-01  -7.8999504553722355e-01  -7.8690203014302629e-01  -7.8335312877195518e-01  -7.7929332387113692e-01  -7.7466263073973873e-01  -7.6939592236883469e-01  -7.6342277092241762e-01  -7.5666730383233005e-01  -7.4904806916515199e-01  -7.4047790033776162e-01  -7.3086376399232578e-01  -7.2010656629605119e-01  -7.0810088123013248e-01  -6.9473454824050040e-01  -6.7988806383533096e-01  -6.6343365890578732e-01  -6.4523390496819844e-01  -6.2513961821902697e-01  -6.0298671241664814e-01  -5.7859145696556225e-01  -5.5174326069361856e-01  -5.2219349280659477e-01  -4.8963768366804844e-01  -4.5368604806683233e-01  -4.1381191987669363e-01  -8.0456120843830126e-01  -8.0451881025138505e-01  -8.0439667643355728e-01  -8.0419176294647277e-01  -8.0389894831141362e-01  -8.0351096893754259e-01  -8.0301832955061170e-01  -8.0240918973534825e-01  -8.0166922785280903e-01  -8.0078148387527692e-01  -7.9972618300422293e-01  -7.9848054228806931e-01  -7.9701856282376593e-01  -7.9531081049535524e-01  -7.9332418855488329e-01  -7.9102170566162122e-01  -7.8836224323293569e-01  -7.8530032608357081e-01  -7.8178590028751471e-01  -7.7776412192174504e-01  -7.7317515975994333e-01  -7.6795401397014940e-01  -7.6203035129748020e-01  -7.5532835490660866e-01  -7.4776658378990801e-01  -7.3925783210992357e-01  -7.2970897261809331e-01  -7.1902075977747693e-01  -7.0708755653699717e-01  -6.9379693252183028e-01  -6.7902905861652640e-01  -6.6265579010783293e-01  -6.4453928199418742e-01  -6.2452990584029722e-01  -6.0246311989564538e-01  -5.7815475007219874e-01  -5.5139380462880461e-01  -5.2193133886913823e-01  -4.8946272275171238e-01  -4.5359827685902071e-01  -4.1381191987669363e-01  -8.0244859118609824e-01  -8.0240646053386422e-01  -8.0228584888705934e-01  -8.0208374538868887e-01  -8.0179508343972761e-01  -8.0141267596528787e-01  -8.0092712568324120e-01  -8.0032671132381039e-01  -7.9959725101029178e-01  -7.9872194429433840e-01  -7.9768119465773413e-01  -7.9645241463871919e-01  -7.9500981610399590e-01  -7.9332418855488329e-01  -7.9136266871027627e-01  -7.8908850492654781e-01  -7.8646082026432851e-01  -7.8343437815401429e-01  -7.7995935459425103e-01  -7.7598112057456869e-01  -7.7144003786087723e-01  -7.6627127031391706e-01  -7.6040461138952686e-01  -7.5376432621965550e-01  -7.4626900346368374e-01  -7.3783140764202959e-01  -7.2835831649375982e-01  -7.1775031943527956e-01  -7.0590154155592044e-01  -6.9269924142972683e-01  -6.7802320824981333e-01  -6.6174485099444147e-01  -6.4372582380507704e-01  -6.2381595762299535e-01  -6.0185015071876302e-01  -5.7764367720097076e-01  -5.5098503910987728e-01  -5.2162488391356288e-01  -4.8925835191072437e-01  -4.5349584476652816e-01  -4.1381191987669363e-01  -8.0000485800741472e-01  -7.9996304031176557e-01  -7.9984413405723143e-01  -7.9964516673944142e-01  -7.9936113521364272e-01  -7.9898494087696958e-01  -7.9850729977947432e-01  -7.9791662854841128e-01  -7.9719890727363396e-01  -7.9633752078310704e-01  -7.9531308004968482e-01  -7.9410322581018622e-01  -7.9268241683624163e-01  -7.9102170566162122e-01  -7.8908850492654781e-01  -7.8684634782340490e-01  -7.8425464639028830e-01  -7.8126845155972680e-01  -7.7783821887880211e-01  -7.7390958360860251e-01  -7.6942314840208859e-01  -7.6431428584347461e-01  -7.5851295667242102e-01  -7.5194354233566751e-01  -7.4452468737470545e-01  -7.3616914275916023e-01  -7.2678359518354763e-01  -7.1626845895377755e-01  -7.0451759551232063e-01  -6.9141790954514049e-01  -6.7684874787803295e-01  -6.6068099460442276e-01  -6.4277570740543277e-01  -6.2298206600158967e-01  -6.0113428653823464e-01  -5.7704696279256784e-01  -5.5050796300960869e-01  -5.2126741045109837e-01  -4.8902012527450689e-01  -4.5337654812013500e-01  -4.1381191987669363e-01  -7.9718792050609044e-01  -7.9714646442313664e-01  -7.9702945678959158e-01  -7.9683396908262627e-01  -7.9655507095802947e-01  -7.9618576535873331e-01  -7.9571689850576433e-01  -7.9513704558977261e-01  -7.9443237323803706e-01  -7.9358648010697830e-01  -7.9258021725392858e-01  -7.9139149027364097e-01  -7.8999504553722355e-01  -7.8836224323293558e-01  -7.8646082026432851e-01  -7.8425464639028830e-01  -7.8170347726489464e-01  -7.7876270821457816e-01  -7.7538313262629477e-01  -7.7151070864930882e-01  -7.6708633745239352e-01  -7.6204565542204616e-01  -7.5631884129925186e-01  -7.4983043715498487e-01  -7.4249917906413743e-01  -7.3423782903981383e-01  -7.2495299380290878e-01  -7.1454490767428680e-01  -7.0290714539602916e-01  -6.8992621466662341e-01  -6.7548095550907938e-01  -6.5944164088558010e-01  -6.4166862456301765e-01  -6.2201030834715743e-01  -6.0030008397129286e-01  -5.7635171270586127e-01  -5.4995227521649126e-01  -5.2085122687939267e-01  -4.8874295097383030e-01  -4.5323786304709540e-01  -4.1381191987669363e-01  -7.9395137532168025e-01  -7.9391033263372468e-01  -7.9379542601243502e-01  -7.9360377704433505e-01  -7.9333053835262912e-01  -7.9296882866755525e-01  -7.9250964276878511e-01  -7.9194173704614057e-01  -7.9125149166918940e-01  -7.9042275062181400e-01  -7.8943664115098677e-01  -7.8827137450036810e-01  -7.8690203014302629e-01  -7.8530032608357081e-01  -7.8343437815401429e-01  -7.8126845155972680e-01  -7.7876270821457816e-01  -7.7587295360131614e-01  -7.7255038695652700e-01  -7.6874135844690306e-01  -7.6438713659440560e-01  -7.5942368841798324e-01  -7.5378147345346491e-01  -7.4738525081402796e-01  -7.4015389552675959e-01  -7.3200021621018552e-01  -7.2283076030759286e-01  -7.1254558494482179e-01  -7.0103796013949538e-01  -6.8819395519672477e-01  -6.7389183657567164e-01  -6.5800117290902160e-01  -6.4038149455784465e-01  -6.2088028136632056e-01  -5.9932993579316174e-01  -5.7554320714031770e-01  -5.4930620375536676e-01  -5.2036753653684298e-01  -4.8842100286323681e-01  -4.5307690133623479e-01  -4.1381191987669363e-01  -7.9024430773405485e-01  -7.9020373312109204e-01  -7.9009113791702246e-01  -7.8990370047016845e-01  -7.8963666738049576e-01  -7.8928328858998942e-01  -7.8883472738333371e-01  -7.8827994596438333e-01  -7.8760556750181465e-01  -7.8679571579020735e-01  -7.8583183395320533e-01  -7.8469248392414070e-01  -7.8335312877195507e-01  -7.8178590028751471e-01  -7.7995935459425103e-01  -7.7783821887880200e-01  -7.7538313262629477e-01  -7.7255038695652689e-01  -7.6929166574589458e-01  -7.6555379212553176e-01  -7.6127848359065153e-01  -7.5640211823763004e-01  -7.5085551343073098e-01  -7.4456371631401352e-01  -7.3744580279193084e-01  -7.2941467758740985e-01  -7.2037686231032561e-01  -7.1023225051046657e-01  -6.9887379754050949e-01  -6.8618709735272321e-01  -6.7204977598165005e-01  -6.5633059902915136e-01  -6.3888814233713087e-01  -6.1956880153697735e-01  -5.9820380007612672e-01  -5.7460466471067895e-01  -5.4855631047174169e-01  -5.1980628772984860e-01  -4.8804761932072577e-01  -4.5289035983171805e-01  -4.1381191987669363e-01  -7.8601110800783014e-01  -7.8597105866707084e-01  -7.8586099180856950e-01  -7.8567814973385686e-01  -7.8541788486851494e-01  -7.8507359495276141e-01  -7.8463663324559696e-01  -7.8409619431454980e-01  -7.8343917619235526e-01  -7.8265001991982619e-01  -7.8171052775989780e-01  -7.8059966166161709e-01  -7.7929332387113681e-01  -7.7776412192174504e-01  -7.7598112057456858e-01  -7.7390958360860251e-01  -7.7151070864930882e-01  -7.687413