<?xml version="1.0"?>
<VTKFile type="UnstructuredGrid"  version="0.1"  >
<UnstructuredGrid>
<Piece  NumberOfPoints="1681" NumberOfCells="3200">
<Points>
<DataArray  type="Float64"  NumberOfComponents="3"  format="ascii">0 0 0  0.5 0 0  1 0 0  1.5 0 0  2 0 0  2.5 0 0  3 0 0  3.5 0 0  4 0 0  4.5 0 0  5 0 0  5.5 0 0  6 0 0  6.5 0 0  7 0 0  7.5 0 0  8 0 0  8.5 0 0  9 0 0  9.5 0 0  10 0 0  10.5 0 0  11 0 0  11.5 0 0  12 0 0  12.5 0 0  13 0 0  13.5 0 0  14 0 0  14.5 0 0  15 0 0  15.5 0 0  16 0 0  16.5 0 0  17 0 0  17.5 0 0  18 0 0  18.5 0 0  19 0 0  19.5 0 0  20 0 0  0 0.5 0  0.5 0.5 0  1 0.5 0  1.5 0.5 0  2 0.5 0  2.5 0.5 0  3 0.5 0  3.5 0.5 0  4 0.5 0  4.5 0.5 0  5 0.5 0  5.5 0.5 0  6 0.5 0  6.5 0.5 0  7 0.5 0  7.5 0.5 0  8 0.5 0  8.5 0.5 0  9 0.5 0  9.5 0.5 0  10 0.5 0  10.5 0.5 0  11 0.5 0  11.5 0.5 0  12 0.5 0  12.5 0.5 0  13 0.5 0  13.5 0.5 0  14 0.5 0  14.5 0.5 0  15 0.5 0  15.5 0.5 0  16 0.5 0  16.5 0.5 0  17 0.5 0  17.5 0.5 0  18 0.5 0  18.5 0.5 0  19 0.5 0  19.5 0.5 0  20 0.5 0  0 1 0  0.5 1 0  1 1 0  1.5 1 0  2 1 0  2.5 1 0  3 1 0  3.5 1 0  4 1 0  4.5 1 0  5 1 0  5.5 1 0  6 1 0  6.5 1 0  7 1 0  7.5 1 0  8 1 0  8.5 1 0  9 1 0  9.5 1 0  10 1 0  10.5 1 0  11 1 0  11.5 1 0  12 1 0  12.5 1 0  13 1 0  13.5 1 0  14 1 0  14.5 1 0  15 1 0  15.5 1 0  16 1 0  16.5 1 0  17 1 0  17.5 1 0  18 1 0  18.5 1 0  19 1 0  19.5 1 0  20 1 0  0 1.5 0  0.5 1.5 0  1 1.5 0  1.5 1.5 0  2 1.5 0  2.5 1.5 0  3 1.5 0  3.5 1.5 0  4 1.5 0  4.5 1.5 0  5 1.5 0  5.5 1.5 0  6 1.5 0  6.5 1.5 0  7 1.5 0  7.5 1.5 0  8 1.5 0  8.5 1.5 0  9 1.5 0  9.5 1.5 0  10 1.5 0  10.5 1.5 0  11 1.5 0  11.5 1.5 0  12 1.5 0  12.5 1.5 0  13 1.5 0  13.5 1.5 0  14 1.5 0  14.5 1.5 0  15 1.5 0  15.5 1.5 0  16 1.5 0  16.5 1.5 0  17 1.5 0  17.5 1.5 0  18 1.5 0  18.5 1.5 0  19 1.5 0  19.5 1.5 0  20 1.5 0  0 2 0  0.5 2 0  1 2 0  1.5 2 0  2 2 0  2.5 2 0  3 2 0  3.5 2 0  4 2 0  4.5 2 0  5 2 0  5.5 2 0  6 2 0  6.5 2 0  7 2 0  7.5 2 0  8 2 0  8.5 2 0  9 2 0  9.5 2 0  10 2 0  10.5 2 0  11 2 0  11.5 2 0  12 2 0  12.5 2 0  13 2 0  13.5 2 0  14 2 0  14.5 2 0  15 2 0  15.5 2 0  16 2 0  16.5 2 0  17 2 0  17.5 2 0  18 2 0  18.5 2 0  19 2 0  19.5 2 0  20 2 0  0 2.5 0  0.5 2.5 0  1 2.5 0  1.5 2.5 0  2 2.5 0  2.5 2.5 0  3 2.5 0  3.5 2.5 0  4 2.5 0  4.5 2.5 0  5 2.5 0  5.5 2.5 0  6 2.5 0  6.5 2.5 0  7 2.5 0  7.5 2.5 0  8 2.5 0  8.5 2.5 0  9 2.5 0  9.5 2.5 0  10 2.5 0  10.5 2.5 0  11 2.5 0  11.5 2.5 0  12 2.5 0  12.5 2.5 0  13 2.5 0  13.5 2.5 0  14 2.5 0  14.5 2.5 0  15 2.5 0  15.5 2.5 0  16 2.5 0  16.5 2.5 0  17 2.5 0  17.5 2.5 0  18 2.5 0  18.5 2.5 0  19 2.5 0  19.5 2.5 0  20 2.5 0  0 3 0  0.5 3 0  1 3 0  1.5 3 0  2 3 0  2.5 3 0  3 3 0  3.5 3 0  4 3 0  4.5 3 0  5 3 0  5.5 3 0  6 3 0  6.5 3 0  7 3 0  7.5 3 0  8 3 0  8.5 3 0  9 3 0  9.5 3 0  10 3 0  10.5 3 0  11 3 0  11.5 3 0  12 3 0  12.5 3 0  13 3 0  13.5 3 0  14 3 0  14.5 3 0  15 3 0  15.5 3 0  16 3 0  16.5 3 0  17 3 0  17.5 3 0  18 3 0  18.5 3 0  19 3 0  19.5 3 0  20 3 0  0 3.5 0  0.5 3.5 0  1 3.5 0  1.5 3.5 0  2 3.5 0  2.5 3.5 0  3 3.5 0  3.5 3.5 0  4 3.5 0  4.5 3.5 0  5 3.5 0  5.5 3.5 0  6 3.5 0  6.5 3.5 0  7 3.5 0  7.5 3.5 0  8 3.5 0  8.5 3.5 0  9 3.5 0  9.5 3.5 0  10 3.5 0  10.5 3.5 0  11 3.5 0  11.5 3.5 0  12 3.5 0  12.5 3.5 0  13 3.5 0  13.5 3.5 0  14 3.5 0  14.5 3.5 0  15 3.5 0  15.5 3.5 0  16 3.5 0  16.5 3.5 0  17 3.5 0  17.5 3.5 0  18 3.5 0  18.5 3.5 0  19 3.5 0  19.5 3.5 0  20 3.5 0  0 4 0  0.5 4 0  1 4 0  1.5 4 0  2 4 0  2.5 4 0  3 4 0  3.5 4 0  4 4 0  4.5 4 0  5 4 0  5.5 4 0  6 4 0  6.5 4 0  7 4 0  7.5 4 0  8 4 0  8.5 4 0  9 4 0  9.5 4 0  10 4 0  10.5 4 0  11 4 0  11.5 4 0  12 4 0  12.5 4 0  13 4 0  13.5 4 0  14 4 0  14.5 4 0  15 4 0  15.5 4 0  16 4 0  16.5 4 0  17 4 0  17.5 4 0  18 4 0  18.5 4 0  19 4 0  19.5 4 0  20 4 0  0 4.5 0  0.5 4.5 0  1 4.5 0  1.5 4.5 0  2 4.5 0  2.5 4.5 0  3 4.5 0  3.5 4.5 0  4 4.5 0  4.5 4.5 0  5 4.5 0  5.5 4.5 0  6 4.5 0  6.5 4.5 0  7 4.5 0  7.5 4.5 0  8 4.5 0  8.5 4.5 0  9 4.5 0  9.5 4.5 0  10 4.5 0  10.5 4.5 0  11 4.5 0  11.5 4.5 0  12 4.5 0  12.5 4.5 0  13 4.5 0  13.5 4.5 0  14 4.5 0  14.5 4.5 0  15 4.5 0  15.5 4.5 0  16 4.5 0  16.5 4.5 0  17 4.5 0  17.5 4.5 0  18 4.5 0  18.5 4.5 0  19 4.5 0  19.5 4.5 0  20 4.5 0  0 5 0  0.5 5 0  1 5 0  1.5 5 0  2 5 0  2.5 5 0  3 5 0  3.5 5 0  4 5 0  4.5 5 0  5 5 0  5.5 5 0  6 5 0  6.5 5 0  7 5 0  7.5 5 0  8 5 0  8.5 5 0  9 5 0  9.5 5 0  10 5 0  10.5 5 0  11 5 0  11.5 5 0  12 5 0  12.5 5 0  13 5 0  13.5 5 0  14 5 0  14.5 5 0  15 5 0  15.5 5 0  16 5 0  16.5 5 0  17 5 0  17.5 5 0  18 5 0  18.5 5 0  19 5 0  19.5 5 0  20 5 0  0 5.5 0  0.5 5.5 0  1 5.5 0  1.5 5.5 0  2 5.5 0  2.5 5.5 0  3 5.5 0  3.5 5.5 0  4 5.5 0  4.5 5.5 0  5 5.5 0  5.5 5.5 0  6 5.5 0  6.5 5.5 0  7 5.5 0  7.5 5.5 0  8 5.5 0  8.5 5.5 0  9 5.5 0  9.5 5.5 0  10 5.5 0  10.5 5.5 0  11 5.5 0  11.5 5.5 0  12 5.5 0  12.5 5.5 0  13 5.5 0  13.5 5.5 0  14 5.5 0  14.5 5.5 0  15 5.5 0  15.5 5.5 0  16 5.5 0  16.5 5.5 0  17 5.5 0  17.5 5.5 0  18 5.5 0  18.5 5.5 0  19 5.5 0  19.5 5.5 0  20 5.5 0  0 6 0  0.5 6 0  1 6 0  1.5 6 0  2 6 0  2.5 6 0  3 6 0  3.5 6 0  4 6 0  4.5 6 0  5 6 0  5.5 6 0  6 6 0  6.5 6 0  7 6 0  7.5 6 0  8 6 0  8.5 6 0  9 6 0  9.5 6 0  10 6 0  10.5 6 0  11 6 0  11.5 6 0  12 6 0  12.5 6 0  13 6 0  13.5 6 0  14 6 0  14.5 6 0  15 6 0  15.5 6 0  16 6 0  16.5 6 0  17 6 0  17.5 6 0  18 6 0  18.5 6 0  19 6 0  19.5 6 0  20 6 0  0 6.5 0  0.5 6.5 0  1 6.5 0  1.5 6.5 0  2 6.5 0  2.5 6.5 0  3 6.5 0  3.5 6.5 0  4 6.5 0  4.5 6.5 0  5 6.5 0  5.5 6.5 0  6 6.5 0  6.5 6.5 0  7 6.5 0  7.5 6.5 0  8 6.5 0  8.5 6.5 0  9 6.5 0  9.5 6.5 0  10 6.5 0  10.5 6.5 0  11 6.5 0  11.5 6.5 0  12 6.5 0  12.5 6.5 0  13 6.5 0  13.5 6.5 0  14 6.5 0  14.5 6.5 0  15 6.5 0  15.5 6.5 0  16 6.5 0  16.5 6.5 0  17 6.5 0  17.5 6.5 0  18 6.5 0  18.5 6.5 0  19 6.5 0  19.5 6.5 0  20 6.5 0  0 7 0  0.5 7 0  1 7 0  1.5 7 0  2 7 0  2.5 7 0  3 7 0  3.5 7 0  4 7 0  4.5 7 0  5 7 0  5.5 7 0  6 7 0  6.5 7 0  7 7 0  7.5 7 0  8 7 0  8.5 7 0  9 7 0  9.5 7 0  10 7 0  10.5 7 0  11 7 0  11.5 7 0  12 7 0  12.5 7 0  13 7 0  13.5 7 0  14 7 0  14.5 7 0  15 7 0  15.5 7 0  16 7 0  16.5 7 0  17 7 0  17.5 7 0  18 7 0  18.5 7 0  19 7 0  19.5 7 0  20 7 0  0 7.5 0  0.5 7.5 0  1 7.5 0  1.5 7.5 0  2 7.5 0  2.5 7.5 0  3 7.5 0  3.5 7.5 0  4 7.5 0  4.5 7.5 0  5 7.5 0  5.5 7.5 0  6 7.5 0  6.5 7.5 0  7 7.5 0  7.5 7.5 0  8 7.5 0  8.5 7.5 0  9 7.5 0  9.5 7.5 0  10 7.5 0  10.5 7.5 0  11 7.5 0  11.5 7.5 0  12 7.5 0  12.5 7.5 0  13 7.5 0  13.5 7.5 0  14 7.5 0  14.5 7.5 0  15 7.5 0  15.5 7.5 0  16 7.5 0  16.5 7.5 0  17 7.5 0  17.5 7.5 0  18 7.5 0  18.5 7.5 0  19 7.5 0  19.5 7.5 0  20 7.5 0  0 8 0  0.5 8 0  1 8 0  1.5 8 0  2 8 0  2.5 8 0  3 8 0  3.5 8 0  4 8 0  4.5 8 0  5 8 0  5.5 8 0  6 8 0  6.5 8 0  7 8 0  7.5 8 0  8 8 0  8.5 8 0  9 8 0  9.5 8 0  10 8 0  10.5 8 0  11 8 0  11.5 8 0  12 8 0  12.5 8 0  13 8 0  13.5 8 0  14 8 0  14.5 8 0  15 8 0  15.5 8 0  16 8 0  16.5 8 0  17 8 0  17.5 8 0  18 8 0  18.5 8 0  19 8 0  19.5 8 0  20 8 0  0 8.5 0  0.5 8.5 0  1 8.5 0  1.5 8.5 0  2 8.5 0  2.5 8.5 0  3 8.5 0  3.5 8.5 0  4 8.5 0  4.5 8.5 0  5 8.5 0  5.5 8.5 0  6 8.5 0  6.5 8.5 0  7 8.5 0  7.5 8.5 0  8 8.5 0  8.5 8.5 0  9 8.5 0  9.5 8.5 0  10 8.5 0  10.5 8.5 0  11 8.5 0  11.5 8.5 0  12 8.5 0  12.5 8.5 0  13 8.5 0  13.5 8.5 0  14 8.5 0  14.5 8.5 0  15 8.5 0  15.5 8.5 0  16 8.5 0  16.5 8.5 0  17 8.5 0  17.5 8.5 0  18 8.5 0  18.5 8.5 0  19 8.5 0  19.5 8.5 0  20 8.5 0  0 9 0  0.5 9 0  1 9 0  1.5 9 0  2 9 0  2.5 9 0  3 9 0  3.5 9 0  4 9 0  4.5 9 0  5 9 0  5.5 9 0  6 9 0  6.5 9 0  7 9 0  7.5 9 0  8 9 0  8.5 9 0  9 9 0  9.5 9 0  10 9 0  10.5 9 0  11 9 0  11.5 9 0  12 9 0  12.5 9 0  13 9 0  13.5 9 0  14 9 0  14.5 9 0  15 9 0  15.5 9 0  16 9 0  16.5 9 0  17 9 0  17.5 9 0  18 9 0  18.5 9 0  19 9 0  19.5 9 0  20 9 0  0 9.5 0  0.5 9.5 0  1 9.5 0  1.5 9.5 0  2 9.5 0  2.5 9.5 0  3 9.5 0  3.5 9.5 0  4 9.5 0  4.5 9.5 0  5 9.5 0  5.5 9.5 0  6 9.5 0  6.5 9.5 0  7 9.5 0  7.5 9.5 0  8 9.5 0  8.5 9.5 0  9 9.5 0  9.5 9.5 0  10 9.5 0  10.5 9.5 0  11 9.5 0  11.5 9.5 0  12 9.5 0  12.5 9.5 0  13 9.5 0  13.5 9.5 0  14 9.5 0  14.5 9.5 0  15 9.5 0  15.5 9.5 0  16 9.5 0  16.5 9.5 0  17 9.5 0  17.5 9.5 0  18 9.5 0  18.5 9.5 0  19 9.5 0  19.5 9.5 0  20 9.5 0  0 10 0  0.5 10 0  1 10 0  1.5 10 0  2 10 0  2.5 10 0  3 10 0  3.5 10 0  4 10 0  4.5 10 0  5 10 0  5.5 10 0  6 10 0  6.5 10 0  7 10 0  7.5 10 0  8 10 0  8.5 10 0  9 10 0  9.5 10 0  10 10 0  10.5 10 0  11 10 0  11.5 10 0  12 10 0  12.5 10 0  13 10 0  13.5 10 0  14 10 0  14.5 10 0  15 10 0  15.5 10 0  16 10 0  16.5 10 0  17 10 0  17.5 10 0  18 10 0  18.5 10 0  19 10 0  19.5 10 0  20 10 0  0 10.5 0  0.5 10.5 0  1 10.5 0  1.5 10.5 0  2 10.5 0  2.5 10.5 0  3 10.5 0  3.5 10.5 0  4 10.5 0  4.5 10.5 0  5 10.5 0  5.5 10.5 0  6 10.5 0  6.5 10.5 0  7 10.5 0  7.5 10.5 0  8 10.5 0  8.5 10.5 0  9 10.5 0  9.5 10.5 0  10 10.5 0  10.5 10.5 0  11 10.5 0  11.5 10.5 0  12 10.5 0  12.5 10.5 0  13 10.5 0  13.5 10.5 0  14 10.5 0  14.5 10.5 0  15 10.5 0  15.5 10.5 0  16 10.5 0  16.5 10.5 0  17 10.5 0  17.5 10.5 0  18 10.5 0  18.5 10.5 0  19 10.5 0  19.5 10.5 0  20 10.5 0  0 11 0  0.5 11 0  1 11 0  1.5 11 0  2 11 0  2.5 11 0  3 11 0  3.5 11 0  4 11 0  4.5 11 0  5 11 0  5.5 11 0  6 11 0  6.5 11 0  7 11 0  7.5 11 0  8 11 0  8.5 11 0  9 11 0  9.5 11 0  10 11 0  10.5 11 0  11 11 0  11.5 11 0  12 11 0  12.5 11 0  13 11 0  13.5 11 0  14 11 0  14.5 11 0  15 11 0  15.5 11 0  16 11 0  16.5 11 0  17 11 0  17.5 11 0  18 11 0  18.5 11 0  19 11 0  19.5 11 0  20 11 0  0 11.5 0  0.5 11.5 0  1 11.5 0  1.5 11.5 0  2 11.5 0  2.5 11.5 0  3 11.5 0  3.5 11.5 0  4 11.5 0  4.5 11.5 0  5 11.5 0  5.5 11.5 0  6 11.5 0  6.5 11.5 0  7 11.5 0  7.5 11.5 0  8 11.5 0  8.5 11.5 0  9 11.5 0  9.5 11.5 0  10 11.5 0  10.5 11.5 0  11 11.5 0  11.5 11.5 0  12 11.5 0  12.5 11.5 0  13 11.5 0  13.5 11.5 0  14 11.5 0  14.5 11.5 0  15 11.5 0  15.5 11.5 0  16 11.5 0  16.5 11.5 0  17 11.5 0  17.5 11.5 0  18 11.5 0  18.5 11.5 0  19 11.5 0  19.5 11.5 0  20 11.5 0  0 12 0  0.5 12 0  1 12 0  1.5 12 0  2 12 0  2.5 12 0  3 12 0  3.5 12 0  4 12 0  4.5 12 0  5 12 0  5.5 12 0  6 12 0  6.5 12 0  7 12 0  7.5 12 0  8 12 0  8.5 12 0  9 12 0  9.5 12 0  10 12 0  10.5 12 0  11 12 0  11.5 12 0  12 12 0  12.5 12 0  13 12 0  13.5 12 0  14 12 0  14.5 12 0  
[...]
<PointData  Scalars="f_2975-1"> 
<DataArray  type="Float64"  Name="f_2975-1"  format="ascii">-8.1932266202040815e-01  -8.1931891052332573e-01  -8.1930983188494588e-01  -8.1929445357689112e-01  -8.1927160273773125e-01  -8.1923966827501460e-01  -8.1919647547962438e-01  -8.1913916678783982e-01  -8.1906406241996210e-01  -8.1896649201072003e-01  -8.1884059231318340e-01  -8.1867906703236193e-01  -8.1847290519395310e-01  -8.1821105478261269e-01  -8.1788004888380239e-01  -8.1746358231684357e-01  -8.1694203780222374e-01  -8.1629196209298971e-01  -8.1548549423083028e-01  -8.1448975015457348e-01  -8.1326617025927073e-01  -8.1176983911310940e-01  -8.0994878928394787e-01  -8.0774330395818050e-01  -8.0508523554872546e-01  -8.0189735951973695e-01  -7.9809278386286742e-01  -7.9357443461625599e-01  -7.8823463599153276e-01  -7.8195479940578105e-01  -7.7460522817642563e-01  -7.6604503276295266e-01  -7.5612213380024274e-01  -7.4467330470665372e-01  -7.3152416910960905e-01  -7.1648901488761529e-01  -6.9937020416047146e-01  -6.7995681687816589e-01  -6.5802187334023954e-01  -6.3331670662327355e-01  -6.0555843324530056e-01  -8.1931891052332573e-01  -8.1931580314154939e-01  -8.1930685357825694e-01  -8.1929148263867246e-01  -8.1926860365867538e-01  -8.1923662521422613e-01  -8.1919337653669011e-01  -8.1913599973053197e-01  -8.1906081323326085e-01  -8.1896314422180772e-01  -8.1883712656205954e-01  -8.1867546074038133e-01  -8.1846913229194984e-01  -8.1820708549680754e-01  -8.1787584959234028e-01  -8.1745911549672778e-01  -8.1693726208983419e-01  -8.1628683248251233e-01  -8.1547996243396892e-01  -8.1448376514166310e-01  -8.1325967899597817e-01  -8.1176278749785769e-01  -8.0994112327853363e-01  -8.0773497088731139e-01  -8.0507618552293425e-01  -8.0188754691001385e-01  -7.9808216872424997e-01  -7.9356298392186164e-01  -7.8822232449928364e-01  -7.8194160994049566e-01  -7.7459115107775933e-01  -7.6603006424452358e-01  -7.5610627304068567e-01  -7.4465654980618146e-01  -7.3150651309429393e-01  -7.1647044644694013e-01  -6.9935073018816429e-01  -6.7993657103783589e-01  -6.5800156822824163e-01  -6.3329953464739441e-01  -6.0555843324530056e-01  -8.1930983188494588e-01  -8.1930685357825694e-01  -8.1929797366317514e-01  -8.1928261741328157e-01  -8.1925972334530939e-01  -8.1922771321533749e-01  -8.1918442142219483e-01  -8.1912699139522260e-01  -8.1905174109895873e-01  -8.1895399632758004e-01  -8.1882788904091841e-01  -8.1866611747757978e-01  -8.1845966468482212e-01  -8.1819747228946760e-01  -8.1786606678275386e-01  -8.1744913632556704e-01  -8.1692705712677305e-01  -8.1627636982885532e-01  -8.1546920806169498e-01  -8.1447268338836076e-01  -8.1324823323268725e-01  -8.1175094098229073e-01  -8.0992884019928535e-01  -8.0772221759528495e-01  -8.0506293193437117e-01  -8.0187376805173682e-01  -7.9806784637755601e-01  -7.9354810831037048e-01  -7.8820689596517102e-01  -7.8192564057758851e-01  -7.7457466636923000e-01  -7.6601310495160468e-01  -7.5608889804870039e-01  -7.4463884168148975e-01  -7.3148859051827164e-01  -7.1645249335759909e-01  -6.9933306486419011e-01  -6.7991980906102856e-01  -6.5798699349976153e-01  -6.3328983769200742e-01  -6.0555843324530056e-01  -8.1929445357689112e-01  -8.1929148263867246e-01  -8.1928261741328157e-01  -8.1926726066781352e-01  -8.1924435168901000e-01  -8.1921231634245795e-01  -8.1916899179446412e-01  -8.1911152264448228e-01  -8.1903622692585487e-01  -8.1893842982060949e-01  -8.1881226225812986e-01  -8.1865042118431597e-01  -8.1844388819052560e-01  -8.1818160335809764e-01  -8.1785009160963340e-01  -8.1743303958410041e-01  -8.1691082209494637e-01  -8.1625997860961030e-01  -8.1545264191405487e-01  -8.1445592318797544e-01  -8.1323126008133773e-01  -8.1173373698580009e-01  -8.0991138943213015e-01  -8.0770450726797360e-01  -8.0504495377664087e-01  -8.0185551992177417e-01  -7.9804933410704237e-01  -7.9352934780196449e-01  -7.8818791558245893e-01  -7.8190648392552931e-01  -7.7455539568959941e-01  -7.6599380561696351e-01  -7.5606968515058237e-01  -7.4461987069744273e-01  -7.3147007589953350e-01  -7.1643474218092673e-01  -6.9931653780669090e-01  -6.7990522576306933e-01  -6.5797548991692922e-01  -6.3328310262829601e-01  -6.0555843324530056e-01  -8.1927160273773125e-01  -8.1926860365867538e-01  -8.1925972334530939e-01  -8.1924435168901000e-01  -8.1922142437232948e-01  -8.1918936744664905e-01  -8.1914601904222328e-01  -8.1908852449591163e-01  -8.1901320218116858e-01  -8.1891537729748687e-01  -8.1878918058099437e-01  -8.1862730866903410e-01  -8.1842074280351673e-01  -8.1815842273602835e-01  -8.1782687313374614e-01  -8.1740978050954616e-01  -8.1688751974040252e-01  -8.1623663061654317e-01  -8.1542924658871885e-01  -8.1443247994293022e-01  -8.1320776999705746e-01  -8.1171020351686318e-01  -8.0988781928646336e-01  -8.0768091149166299e-01  -8.0502134908112621e-01  -8.0183193029558508e-01  -7.9802579276254160e-01  -7.9350589952289641e-01  -7.8816461956821249e-01  -7.8188341728680499e-01  -7.7453265786126746e-01  -7.6597152415518288e-01  -7.5604802372797231e-01  -7.4459904066653204e-01  -7.3145035358144894e-01  -7.1641649483739833e-01  -6.9930026103849574e-01  -6.7989159051415815e-01  -6.5796537961053392e-01  -6.3327757265975204e-01  -6.0555843324530056e-01  -8.1923966827501460e-01  -8.1923662521422613e-01  -8.1922771321533749e-01  -8.1921231634245806e-01  -8.1918936744664905e-01  -8.1915729191929954e-01  -8.1911392821789830e-01  -8.1905642231805864e-01  -8.1898109328102497e-01  -8.1888326698863334e-01  -8.1875707488013105e-01  -8.1859521436560923e-01  -8.1838866757942030e-01  -8.1812637533086674e-01  -8.1779486355134401e-01  -8.1737782026338124e-01  -8.1685562213845930e-01  -8.1620481108940157e-01  -8.1539752306874613e-01  -8.1440087330744759e-01  -8.1317630459445889e-01  -8.1167890780191332e-01  -8.0985672659929853e-01  -8.0765006102419223e-01  -8.0499078708443439e-01  -8.0180171159269353e-01  -7.9799598264325766e-01  -7.9347657611347877e-01  -7.8813587679217623e-01  -7.8185536857111648e-01  -7.7450544080406380e-01  -7.6594530646743808e-01  -7.5602301089478441e-01  -7.4457548591329203e-01  -7.3142857074885459e-01  -7.1639687430233723e-01  -6.9928328699219211e-01  -6.7987785294707082e-01  -6.5795556343793105e-01  -6.3327238777277806e-01  -6.0555843324530056e-01  -8.1919647547962438e-01  -8.1919337653669011e-01  -8.1918442142219483e-01  -8.1916899179446412e-01  -8.1914601904222317e-01  -8.1911392821789830e-01  -8.1907055823375241e-01  -8.1901305600179841e-01  -8.1893774182896051e-01  -8.1883994309145935e-01  -8.1871379297336844e-01  -8.1855199090898723e-01  -8.1834552137305128e-01  -8.1808332786678883e-01  -8.1775193939512858e-01  -8.1733504745946151e-01  -8.1681303263353033e-01  -8.1616244117043490e-01  -8.1535541381596044e-01  -8.1435907106822436e-01  -8.1313486149189074e-01  -8.1163788230146472e-01  -8.0981618416878853e-01  -8.0761007493555426e-01  -8.0495143941984237e-01  -8.0176309453189354e-01  -7.9795820012258967e-01  -7.9343974595965039e-01  -7.8810013344530272e-01  -7.8182086652195804e-01  -7.7447235887864008e-01  -7.6591385309187743e-01  -7.5599343044328704e-01  -7.4454806612703917e-01  -7.3140365088812964e-01  -7.1637485290801650e-01  -6.9926462645705656e-01  -6.7986307496371168e-01  -6.5794522453431092e-01  -6.3326701928271489e-01  -6.0555843324530056e-01  -8.1913916678783993e-01  -8.1913599973053197e-01  -8.1912699139522260e-01  -8.1911152264448228e-01  -8.1908852449591152e-01  -8.1905642231805864e-01  -8.1901305600179841e-01  -8.1895557400345409e-01  -8.1888029867053935e-01  -8.1878255989346604e-01  -8.1865649385669026e-01  -8.1849480351237214e-01  -8.1828847740727861e-01  -8.1802646370193188e-01  -8.1769529667162533e-01  -8.1727867371041452e-01  -8.1675698190434098e-01  -8.1610677462253334e-01  -8.1530020030430961e-01  -8.1430438768781255e-01  -8.1308079409688394e-01  -8.1158452601218534e-01  -8.0976364389600142e-01  -8.0755846596805692e-01  -8.0490088813894944e-01  -8.0171373933345602e-01  -7.9791019264155660e-01  -7.9339325270123995e-01  -7.8805533792736060e-01  -7.8177797202069033e-01  -7.7443159183778143e-01  -7.6587546719118804e-01  -7.5595771120258326e-01  -7.4451533570312878e-01  -7.3137427232907148e-01  -7.1634923245032101e-01  -6.9924321136269929e-01  -6.7984634287458723e-01  -6.5793365879599486e-01  -6.3326106480429167e-01  -6.0555843324530056e-01  -8.1906406241996210e-01  -8.1906081323326085e-01  -8.1905174109895873e-01  -8.1903622692585487e-01  -8.1901320218116846e-01  -8.1898109328102486e-01  -8.1893774182896040e-01  -8.1888029867053935e-01  -8.1880508922670825e-01  -8.1870744716927391e-01  -8.1858151321230865e-01  -8.1841999563494816e-01  -8.1821388915708870e-01  -8.1795214899856949e-01  -8.1762131740449351e-01  -8.1720510065241669e-01  -8.1668389560406751e-01  -8.1603426624879838e-01  -8.1522837241813884e-01  -8.1423335492148785e-01  -8.1301068372791574e-01  -8.1151547843235106e-01  -8.0969581299170001e-01  -8.0749201944745908e-01  -8.0483600786232112e-01  -8.0165062172331047e-01  -7.9784904926576183e-01  -7.9333431113067843e-01  -7.8799884296495570e-01  -7.8172418737394556e-01  -7.7438080225382167e-01  -7.6582798097986837e-01  -7.5591386292286999e-01  -7.4447548855757584e-01  -7.3133881947273127e-01  -7.1631859595187353e-01  -6.9921783697620499e-01  -6.7982668823608805e-01  -6.5792017259536539e-01  -6.3325415590174194e-01  -6.0555843324530056e-01  -8.1896649201072003e-01  -8.1896314422180772e-01  -8.1895399632758004e-01  -8.1893842982060949e-01  -8.1891537729748687e-01  -8.1888326698863334e-01  -8.1883994309145935e-01  -8.1878255989346604e-01  -8.1870744716927391e-01  -8.1860994392593645e-01  -8.1848419727123090e-01  -8.1832292301513099e-01  -8.1811712461791630e-01  -8.1785576730660214e-01  -8.1752540463361667e-01  -8.1710975548553355e-01  -8.1658923059801858e-01  -8.1594040901979614e-01  -8.1513546670355175e-01  -8.1414156147614924e-01  -8.1292018102003771e-01  -8.1142646311609168e-01  -8.0960850015050756e-01  -8.0740664262384565e-01  -8.0475281891416328e-01  -8.0156989057152039e-01  -7.9777106361939232e-01  -7.9325937628813659e-01  -7.8792728178766813e-01  -7.8165634050407573e-01  -7.7431702859202634e-01  -7.6576865834351782e-01  -7.5585938866070768e-01  -7.4442627969677977e-01  -7.3129531171974604e-01  -7.1628124058018749e-01  -6.9918709437895155e-01  -6.7980301685677824e-01  -6.5790401239139928e-01  -6.3324590695982497e-01  -6.0555843324530056e-01  -8.1884059231318340e-01  -8.1883712656205943e-01  -8.1882788904091841e-01  -8.1881226225812986e-01  -8.1878918058099426e-01  -8.1875707488013105e-01  -8.1871379297336844e-01  -8.1865649385669026e-01  -8.1858151321230865e-01  -8.1848419727123090e-01  -8.1835870180301085e-01  -8.1819775283664364e-01  -8.1799236571698186e-01  -8.1773151930766230e-01  -8.1740178260306118e-01  -8.1698689174576899e-01  -8.1646727649534123e-01  -8.1581953658263207e-01  -8.1501587012213927e-01  -8.1402345833346801e-01  -8.1280381320786299e-01  -8.1131209738038090e-01  -8.0949642822732093e-01  -8.0729718095034420e-01  -8.0464630792759084e-01  -8.0146669363988332e-01  -7.9767156567680331e-01  -7.9316398227004481e-01  -7.8783641496966783e-01  -7.8157044083496230e-01  -7.7423655106934841e-01  -7.6569407140118795e-01  -7.5579117241944627e-01  -7.4436492377174368e-01  -7.3124131209985521e-01  -7.1623509492562187e-01  -6.9914929499803380e-01  -6.7977404074815484e-01  -6.5788430827322497e-01  -6.3323588041714940e-01  -6.0555843324530056e-01  -8.1867906703236182e-01  -8.1867546074038122e-01  -8.1866611747757967e-01  -8.1865042118431586e-01  -8.1862730866903399e-01  -8.1859521436560923e-01  -8.1855199090898711e-01  -8.1849480351237214e-01  -8.1841999563494816e-01  -8.1832292301513099e-01  -8.1819775283664364e-01  -8.1803722462271256e-01  -8.1783236945127635e-01  -8.1757218428852652e-01  -8.1724325868814929e-01  -8.1682935183692018e-01  -8.1631091897683905e-01  -8.1566458762401484e-01  -8.1486258574551640e-01  -8.1387212613855675e-01  -8.1265475364731465e-01  -8.1116566448486194e-01  -8.0935300969527901e-01  -8.0715719754172655e-01  -8.0451021213321428e-01  -8.0133496763657208e-01  -7.9754471861909126e-01  -7.9304254700680188e-01  -7.8772094430158301e-01  -7.8146150343854104e-01  -7.7413472719712850e-01  -7.6559994842008128e-01  -7.5570534016735258e-01  -7.4428796960212718e-01  -7.3117381536203352e-01  -7.1617762053042355e-01  -6.9910238570585981e-01  -6.7973820798588913e-01  -6.5786002177306169e-01  -6.3322355793666829e-01  -6.0555843324530056e-01  -8.1847290519395310e-01  -8.1846913229194984e-01  -8.1845966468482212e-01  -8.1844388819052549e-01  -8.1842074280351673e-01  -8.1838866757942019e-01  -8.1834552137305117e-01  -8.1828847740727850e-01  -8.1821388915708859e-01  -8.1811712461791619e-01  -8.1799236571698175e-01  -8.1783236945127635e-01  -8.1762818733029730e-01  -8.1736883990321341e-01  -8.1704094359781532e-01  -8.1662828783023855e-01  -8.1611136139336515e-01  -8.1546682852257524e-01  -8.1466695678099954e-01  -8.1367900099408041e-01  -8.1246454986089278e-01  -8.1097884451074254e-01  -8.0917008105196131e-01  -8.0697871192252812e-01  -8.0433676339137117e-01  -8.0116718860399216e-01  -7.9738327677309850e-01  -7.9288813905762057e-01  -7.8757428982817801e-01  -7.8132333774365781e-01  -7.7400579357548738e-01  -7.6548099002952885e-01  -7.5559709165797140e-01  -7.4419114859640345e-01  -7.3108911380447439e-01  -7.1610569586711359e-01  -6.9904385186360862e-01  -6.7969362627363494e-01  -6.5782989223275812e-01  -6.3320831247017662e-01  -6.0555843324530056e-01  -8.1821105478261269e-01  -8.1820708549680754e-01  -8.1819747228946760e-01  -8.1818160335809764e-01  -8.1815842273602835e-01  -8.1812637533086674e-01  -8.1808332786678872e-01  -8.1802646370193177e-01  -8.1795214899856949e-01  -8.1785576730660214e-01  -8.1773151930766230e-01  -8.1757218428852640e-01  -8.1736883990321341e-01  -8.1711053698092628e-01  -8.1678392658115873e-01  -8.1637283722600851e-01  -8.1585780128677654e-01  -8.1521553089232457e-01  -8.1441834547180203e-01  -8.1343355513618254e-01  -8.1222280650778456e-01  -8.1074140025822083e-01  -8.0893759240685925e-01  -8.0675189421040405e-01  -8.0411638803089758e-01  -8.0095407863196022e-01  -7.9717830057622052e-01  -7.9269220235180138e-01  -7.8738832601637931e-01  -7.8114829687149756e-01  -7.7384263017957200e-01  -7.6533065022768032e-01  -7.5546049985596753e-01  -7.4406919418123052e-01  -7.3098263816731091e-01  -7.1601548007171156e-01  -6.9897060528754962e-01  -6.7963797666736092e-01  -6.5779237796767842e-01  -6.3318937844305934e-01  -6.0555843324530056e-01  -8.1788004888380239e-01  -8.1787584959234028e-01  -8.1786606678275386e-01  -8.1785009160963340e-01  -8.1782687313374614e-01  -8.1779486355134401e-01  -8.1775193939512858e-01  -8.1769529667162533e-01  -8.1762131740449351e-01  -8.1752540463361667e-01  -8.1740178260306118e-01  -8.1724325868814918e-01  -8.1704094359781532e-01  -8.1678392658115861e-01  -8.1645890280624600e-01  -8.1604975080336084e-01  -8.1553705890830819e-01  -8.1489760102975040e-01  -8.1410376380996796e-01  -8.1312292934359065e-01  -8.1191682003062637e-01  -8.1044081480266217e-01  -8.0864324876853144e-01  -8.0646471112437657e-01  -8.0383735875351059e-01  -8.0068426503016554e-01  -7.9691882459095353e-01  -7.9244423481722759e-01  -7.8715307295141279e-01  -7.8092698350532863e-01  -7.7363648311779754e-01  -7.6514087829704258e-01  -7.5528827427123590e-01  -7.4391562874858075e-01  -7.3084877027352124e-01  -7.1590225321890366e-01  -6.9887885394945670e-01  -6.7956841432578097e-01  -6.5774558944683448e-01  -6.3316581828867191e-01  -6.0555843324530056e-01  -8.1746358231684357e-01  -8.1745911549672778e-01  -8.1744913632556704e-01  -8.1743303958410041e-01  -8.1740978050954616e-01  -8.1737782026338124e-01  -8.1733504745946151e-01  -8.1727867371041452e-01  -8.1720510065241680e-01  -8.1710975548553355e-01  -8.1698689174576899e-01  -8.1682935183692018e-01  -8.1662828783023844e-01  -8.1637283722600851e-01  -8.1604975080336084e-01  -8.1564297040200684e-01  -8.1513315551701560e-01  -8.1449715897173613e-01  -8.1370745367753872e-01  -8.1273151458591841e-01  -8.1153116235660760e-01  -8.1006187793978723e-01  -8.0827210009605199e-01  -8.0610252070117294e-01  -8.0348539529426244e-01  -8.0034388845307336e-01  -7.9659147486980708e-01  -7.9213141702067080e-01  -7.8685633853959380e-01  -7.8064790817094531e-01  -7.7337664169222398e-01  -7.6490181747584818e-01  -7.5507148412760372e-01  -7.4372251417930002e-01  -7.3068062364724584e-01  -7.1576022956869645e-01  -6.9876395009014602e-01  -6.7948145333635313e-01  -6.5768721215882908e-01  -6.3313648399687816e-01  -6.0555843324530056e-01  -8.1694203780222363e-01  -8.1693726208983408e-01  -8.1692705712677305e-01  -8.1691082209494637e-01  -8.1688751974040252e-01  -8.1685562213845930e-01  -8.1681303263353033e-01  -8.1675698190434098e-01  -8.1668389560406740e-01  -8.1658923059801858e-01  -8.1646727649534123e-01  -8.1631091897683905e-01  -8.1611136139336504e-01  -8.1585780128677654e-01  -8.1553705890830808e-01  -8.1513315551701560e-01  -8.1462684026928078e-01  -8.1399506588672665e-01  -8.1321041502849001e-01  -8.1224048138974525e-01  -8.1104721197109242e-01  -8.0958621964951483e-01  -8.0780607802720505e-01  -8.0564761338735480e-01  -8.0304321123674527e-01  -7.9991615708863451e-01  -7.9618003248536784e-01  -7.9173818734109047e-01  -7.8648330796345789e-01  -7.8029709593320717e-01  -7.7305006557899325e-01  -7.6460145608465790e-01  -7.5479923702873275e-01  -7.4348016165931607e-01  -7.3046978797612350e-01  -7.1558233990786990e-01  -6.9862021325346846e-01  -6.7937283267439286e-01  -6.5761441698669765e-01  -6.3309997250336558e-01  -6.0555843324530056e-01  -8.1629196209298971e-01  -8.1628683248251221e-01  -8.1627636982885532e-01  -8.1625997860961041e-01  -8.1623663061654317e-01  -8.1620481108940157e-01  -8.1616244117043502e-01  -8.1610677462253334e-01  -8.1603426624879838e-01  -8.1594040901979614e-01  -8.1581953658263195e-01  -8.1566458762401484e-01  -8.1546682852257513e-01  -8.1521553089232457e-01  -8.1489760102975040e-01  -8.1449715897173602e-01  -8.1399506588672665e-01  -8.1336839988594678e-01  -8.1258988207072225e-01  -8.1162725672295166e-01  -8.1044263196998756e-01  -8.0899178995137844e-01  -8.0722347838141351e-01  -8.0507869828779088e-01  -8.0249000540515369e-01  -7.9938084493811845e-01  -7.9566494083024986e-01  -7.9124576084322717e-01  -7.8601607712175170e-01  -7.7985763783085182e-01  -7.7264095809014122e-01  -7.6422522678493843e-01  -7.5445830861638918e-01  -7.4317679623003630e-01  -7.3020603295583508e-01  -7.1535997879137248e-01  -6.9844072450173811e-01  -6.7923736021664105e-01  -6.5752375588230993e-01  -6.3305457376298946e-01  -6.0555843324530056e-01  -8.1548549423083017e-01  -8.1547996243396892e-01  -8.1546920806169498e-01  -8.1545264191405487e-01  -8.1542924658871885e-01  -8.1539752306874624e-01  -8.1535541381596044e-01  -8.1530020030430961e-01  -8.1522837241813884e-01  -8.1513546670355164e-01  -8.1501587012213916e-01  -8.1486258574551629e-01  -8.1466695678099954e-01  -8.1441834547180203e-01  -8.1410376380996785e-01  -8.1370745367753872e-01  -8.1321041502849001e-01  -8.1258988207072225e-01  -8.1181874912131968e-01  -8.1086494988852287e-01  -8.0969079635450436e-01  -8.0825228613588163e-01  -8.0649839008542135e-01  -8.0437033482135245e-01  -8.0180089762500095e-01  -7.9871373346037322e-01  -7.9502275538971046e-01  -7.9063158994505356e-01  -7.8543312752005545e-01  -7.7930918389615389e-01  -7.7213028178659726e-01  -7.6375554974422355e-01  -7.5403271862411614e-01  -7.4279817126990677e-01  -7.2987696671132429e-01  -7.1508271210953211e-01  -6.9821708772230306e-01  -6.7906873145691904e-01  -6.5741104045788012e-01  -6.3299821027252023e-01  -6.0555843324530056e-01  -8.1448975015457337e-01  -8.1448376514166299e-01  -8.1447268338836076e-01  -8.1445592318797544e-01  -8.1443247994293022e-01  -8.1440087330744759e-01  -8.1435907106822436e-01  -8.1430438768781266e-01  -8.1423335492148785e-01  -8.1414156147614913e-01  -8.1402345833346801e-01  -8.1387212613855664e-01  -8.1367900099408041e-01  -8.1343355513618254e-01  -8.1312292934359065e-01  -8.1273151458591830e-01  -8.1224048138974525e-01  -8.1162