<?xml version="1.0"?>
<VTKFile type="UnstructuredGrid"  version="0.1"  >
<UnstructuredGrid>
<Piece  NumberOfPoints="1681" NumberOfCells="3200">
<Points>
<DataArray  type="Float64"  NumberOfComponents="3"  format="ascii">0 0 0  0.5 0 0  1 0 0  1.5 0 0  2 0 0  2.5 0 0  3 0 0  3.5 0 0  4 0 0  4.5 0 0  5 0 0  5.5 0 0  6 0 0  6.5 0 0  7 0 0  7.5 0 0  8 0 0  8.5 0 0  9 0 0  9.5 0 0  10 0 0  10.5 0 0  11 0 0  11.5 0 0  12 0 0  12.5 0 0  13 0 0  13.5 0 0  14 0 0  14.5 0 0  15 0 0  15.5 0 0  16 0 0  16.5 0 0  17 0 0  17.5 0 0  18 0 0  18.5 0 0  19 0 0  19.5 0 0  20 0 0  0 0.5 0  0.5 0.5 0  1 0.5 0  1.5 0.5 0  2 0.5 0  2.5 0.5 0  3 0.5 0  3.5 0.5 0  4 0.5 0  4.5 0.5 0  5 0.5 0  5.5 0.5 0  6 0.5 0  6.5 0.5 0  7 0.5 0  7.5 0.5 0  8 0.5 0  8.5 0.5 0  9 0.5 0  9.5 0.5 0  10 0.5 0  10.5 0.5 0  11 0.5 0  11.5 0.5 0  12 0.5 0  12.5 0.5 0  13 0.5 0  13.5 0.5 0  14 0.5 0  14.5 0.5 0  15 0.5 0  15.5 0.5 0  16 0.5 0  16.5 0.5 0  17 0.5 0  17.5 0.5 0  18 0.5 0  18.5 0.5 0  19 0.5 0  19.5 0.5 0  20 0.5 0  0 1 0  0.5 1 0  1 1 0  1.5 1 0  2 1 0  2.5 1 0  3 1 0  3.5 1 0  4 1 0  4.5 1 0  5 1 0  5.5 1 0  6 1 0  6.5 1 0  7 1 0  7.5 1 0  8 1 0  8.5 1 0  9 1 0  9.5 1 0  10 1 0  10.5 1 0  11 1 0  11.5 1 0  12 1 0  12.5 1 0  13 1 0  13.5 1 0  14 1 0  14.5 1 0  15 1 0  15.5 1 0  16 1 0  16.5 1 0  17 1 0  17.5 1 0  18 1 0  18.5 1 0  19 1 0  19.5 1 0  20 1 0  0 1.5 0  0.5 1.5 0  1 1.5 0  1.5 1.5 0  2 1.5 0  2.5 1.5 0  3 1.5 0  3.5 1.5 0  4 1.5 0  4.5 1.5 0  5 1.5 0  5.5 1.5 0  6 1.5 0  6.5 1.5 0  7 1.5 0  7.5 1.5 0  8 1.5 0  8.5 1.5 0  9 1.5 0  9.5 1.5 0  10 1.5 0  10.5 1.5 0  11 1.5 0  11.5 1.5 0  12 1.5 0  12.5 1.5 0  13 1.5 0  13.5 1.5 0  14 1.5 0  14.5 1.5 0  15 1.5 0  15.5 1.5 0  16 1.5 0  16.5 1.5 0  17 1.5 0  17.5 1.5 0  18 1.5 0  18.5 1.5 0  19 1.5 0  19.5 1.5 0  20 1.5 0  0 2 0  0.5 2 0  1 2 0  1.5 2 0  2 2 0  2.5 2 0  3 2 0  3.5 2 0  4 2 0  4.5 2 0  5 2 0  5.5 2 0  6 2 0  6.5 2 0  7 2 0  7.5 2 0  8 2 0  8.5 2 0  9 2 0  9.5 2 0  10 2 0  10.5 2 0  11 2 0  11.5 2 0  12 2 0  12.5 2 0  13 2 0  13.5 2 0  14 2 0  14.5 2 0  15 2 0  15.5 2 0  16 2 0  16.5 2 0  17 2 0  17.5 2 0  18 2 0  18.5 2 0  19 2 0  19.5 2 0  20 2 0  0 2.5 0  0.5 2.5 0  1 2.5 0  1.5 2.5 0  2 2.5 0  2.5 2.5 0  3 2.5 0  3.5 2.5 0  4 2.5 0  4.5 2.5 0  5 2.5 0  5.5 2.5 0  6 2.5 0  6.5 2.5 0  7 2.5 0  7.5 2.5 0  8 2.5 0  8.5 2.5 0  9 2.5 0  9.5 2.5 0  10 2.5 0  10.5 2.5 0  11 2.5 0  11.5 2.5 0  12 2.5 0  12.5 2.5 0  13 2.5 0  13.5 2.5 0  14 2.5 0  14.5 2.5 0  15 2.5 0  15.5 2.5 0  16 2.5 0  16.5 2.5 0  17 2.5 0  17.5 2.5 0  18 2.5 0  18.5 2.5 0  19 2.5 0  19.5 2.5 0  20 2.5 0  0 3 0  0.5 3 0  1 3 0  1.5 3 0  2 3 0  2.5 3 0  3 3 0  3.5 3 0  4 3 0  4.5 3 0  5 3 0  5.5 3 0  6 3 0  6.5 3 0  7 3 0  7.5 3 0  8 3 0  8.5 3 0  9 3 0  9.5 3 0  10 3 0  10.5 3 0  11 3 0  11.5 3 0  12 3 0  12.5 3 0  13 3 0  13.5 3 0  14 3 0  14.5 3 0  15 3 0  15.5 3 0  16 3 0  16.5 3 0  17 3 0  17.5 3 0  18 3 0  18.5 3 0  19 3 0  19.5 3 0  20 3 0  0 3.5 0  0.5 3.5 0  1 3.5 0  1.5 3.5 0  2 3.5 0  2.5 3.5 0  3 3.5 0  3.5 3.5 0  4 3.5 0  4.5 3.5 0  5 3.5 0  5.5 3.5 0  6 3.5 0  6.5 3.5 0  7 3.5 0  7.5 3.5 0  8 3.5 0  8.5 3.5 0  9 3.5 0  9.5 3.5 0  10 3.5 0  10.5 3.5 0  11 3.5 0  11.5 3.5 0  12 3.5 0  12.5 3.5 0  13 3.5 0  13.5 3.5 0  14 3.5 0  14.5 3.5 0  15 3.5 0  15.5 3.5 0  16 3.5 0  16.5 3.5 0  17 3.5 0  17.5 3.5 0  18 3.5 0  18.5 3.5 0  19 3.5 0  19.5 3.5 0  20 3.5 0  0 4 0  0.5 4 0  1 4 0  1.5 4 0  2 4 0  2.5 4 0  3 4 0  3.5 4 0  4 4 0  4.5 4 0  5 4 0  5.5 4 0  6 4 0  6.5 4 0  7 4 0  7.5 4 0  8 4 0  8.5 4 0  9 4 0  9.5 4 0  10 4 0  10.5 4 0  11 4 0  11.5 4 0  12 4 0  12.5 4 0  13 4 0  13.5 4 0  14 4 0  14.5 4 0  15 4 0  15.5 4 0  16 4 0  16.5 4 0  17 4 0  17.5 4 0  18 4 0  18.5 4 0  19 4 0  19.5 4 0  20 4 0  0 4.5 0  0.5 4.5 0  1 4.5 0  1.5 4.5 0  2 4.5 0  2.5 4.5 0  3 4.5 0  3.5 4.5 0  4 4.5 0  4.5 4.5 0  5 4.5 0  5.5 4.5 0  6 4.5 0  6.5 4.5 0  7 4.5 0  7.5 4.5 0  8 4.5 0  8.5 4.5 0  9 4.5 0  9.5 4.5 0  10 4.5 0  10.5 4.5 0  11 4.5 0  11.5 4.5 0  12 4.5 0  12.5 4.5 0  13 4.5 0  13.5 4.5 0  14 4.5 0  14.5 4.5 0  15 4.5 0  15.5 4.5 0  16 4.5 0  16.5 4.5 0  17 4.5 0  17.5 4.5 0  18 4.5 0  18.5 4.5 0  19 4.5 0  19.5 4.5 0  20 4.5 0  0 5 0  0.5 5 0  1 5 0  1.5 5 0  2 5 0  2.5 5 0  3 5 0  3.5 5 0  4 5 0  4.5 5 0  5 5 0  5.5 5 0  6 5 0  6.5 5 0  7 5 0  7.5 5 0  8 5 0  8.5 5 0  9 5 0  9.5 5 0  10 5 0  10.5 5 0  11 5 0  11.5 5 0  12 5 0  12.5 5 0  13 5 0  13.5 5 0  14 5 0  14.5 5 0  15 5 0  15.5 5 0  16 5 0  16.5 5 0  17 5 0  17.5 5 0  18 5 0  18.5 5 0  19 5 0  19.5 5 0  20 5 0  0 5.5 0  0.5 5.5 0  1 5.5 0  1.5 5.5 0  2 5.5 0  2.5 5.5 0  3 5.5 0  3.5 5.5 0  4 5.5 0  4.5 5.5 0  5 5.5 0  5.5 5.5 0  6 5.5 0  6.5 5.5 0  7 5.5 0  7.5 5.5 0  8 5.5 0  8.5 5.5 0  9 5.5 0  9.5 5.5 0  10 5.5 0  10.5 5.5 0  11 5.5 0  11.5 5.5 0  12 5.5 0  12.5 5.5 0  13 5.5 0  13.5 5.5 0  14 5.5 0  14.5 5.5 0  15 5.5 0  15.5 5.5 0  16 5.5 0  16.5 5.5 0  17 5.5 0  17.5 5.5 0  18 5.5 0  18.5 5.5 0  19 5.5 0  19.5 5.5 0  20 5.5 0  0 6 0  0.5 6 0  1 6 0  1.5 6 0  2 6 0  2.5 6 0  3 6 0  3.5 6 0  4 6 0  4.5 6 0  5 6 0  5.5 6 0  6 6 0  6.5 6 0  7 6 0  7.5 6 0  8 6 0  8.5 6 0  9 6 0  9.5 6 0  10 6 0  10.5 6 0  11 6 0  11.5 6 0  12 6 0  12.5 6 0  13 6 0  13.5 6 0  14 6 0  14.5 6 0  15 6 0  15.5 6 0  16 6 0  16.5 6 0  17 6 0  17.5 6 0  18 6 0  18.5 6 0  19 6 0  19.5 6 0  20 6 0  0 6.5 0  0.5 6.5 0  1 6.5 0  1.5 6.5 0  2 6.5 0  2.5 6.5 0  3 6.5 0  3.5 6.5 0  4 6.5 0  4.5 6.5 0  5 6.5 0  5.5 6.5 0  6 6.5 0  6.5 6.5 0  7 6.5 0  7.5 6.5 0  8 6.5 0  8.5 6.5 0  9 6.5 0  9.5 6.5 0  10 6.5 0  10.5 6.5 0  11 6.5 0  11.5 6.5 0  12 6.5 0  12.5 6.5 0  13 6.5 0  13.5 6.5 0  14 6.5 0  14.5 6.5 0  15 6.5 0  15.5 6.5 0  16 6.5 0  16.5 6.5 0  17 6.5 0  17.5 6.5 0  18 6.5 0  18.5 6.5 0  19 6.5 0  19.5 6.5 0  20 6.5 0  0 7 0  0.5 7 0  1 7 0  1.5 7 0  2 7 0  2.5 7 0  3 7 0  3.5 7 0  4 7 0  4.5 7 0  5 7 0  5.5 7 0  6 7 0  6.5 7 0  7 7 0  7.5 7 0  8 7 0  8.5 7 0  9 7 0  9.5 7 0  10 7 0  10.5 7 0  11 7 0  11.5 7 0  12 7 0  12.5 7 0  13 7 0  13.5 7 0  14 7 0  14.5 7 0  15 7 0  15.5 7 0  16 7 0  16.5 7 0  17 7 0  17.5 7 0  18 7 0  18.5 7 0  19 7 0  19.5 7 0  20 7 0  0 7.5 0  0.5 7.5 0  1 7.5 0  1.5 7.5 0  2 7.5 0  2.5 7.5 0  3 7.5 0  3.5 7.5 0  4 7.5 0  4.5 7.5 0  5 7.5 0  5.5 7.5 0  6 7.5 0  6.5 7.5 0  7 7.5 0  7.5 7.5 0  8 7.5 0  8.5 7.5 0  9 7.5 0  9.5 7.5 0  10 7.5 0  10.5 7.5 0  11 7.5 0  11.5 7.5 0  12 7.5 0  12.5 7.5 0  13 7.5 0  13.5 7.5 0  14 7.5 0  14.5 7.5 0  15 7.5 0  15.5 7.5 0  16 7.5 0  16.5 7.5 0  17 7.5 0  17.5 7.5 0  18 7.5 0  18.5 7.5 0  19 7.5 0  19.5 7.5 0  20 7.5 0  0 8 0  0.5 8 0  1 8 0  1.5 8 0  2 8 0  2.5 8 0  3 8 0  3.5 8 0  4 8 0  4.5 8 0  5 8 0  5.5 8 0  6 8 0  6.5 8 0  7 8 0  7.5 8 0  8 8 0  8.5 8 0  9 8 0  9.5 8 0  10 8 0  10.5 8 0  11 8 0  11.5 8 0  12 8 0  12.5 8 0  13 8 0  13.5 8 0  14 8 0  14.5 8 0  15 8 0  15.5 8 0  16 8 0  16.5 8 0  17 8 0  17.5 8 0  18 8 0  18.5 8 0  19 8 0  19.5 8 0  20 8 0  0 8.5 0  0.5 8.5 0  1 8.5 0  1.5 8.5 0  2 8.5 0  2.5 8.5 0  3 8.5 0  3.5 8.5 0  4 8.5 0  4.5 8.5 0  5 8.5 0  5.5 8.5 0  6 8.5 0  6.5 8.5 0  7 8.5 0  7.5 8.5 0  8 8.5 0  8.5 8.5 0  9 8.5 0  9.5 8.5 0  10 8.5 0  10.5 8.5 0  11 8.5 0  11.5 8.5 0  12 8.5 0  12.5 8.5 0  13 8.5 0  13.5 8.5 0  14 8.5 0  14.5 8.5 0  15 8.5 0  15.5 8.5 0  16 8.5 0  16.5 8.5 0  17 8.5 0  17.5 8.5 0  18 8.5 0  18.5 8.5 0  19 8.5 0  19.5 8.5 0  20 8.5 0  0 9 0  0.5 9 0  1 9 0  1.5 9 0  2 9 0  2.5 9 0  3 9 0  3.5 9 0  4 9 0  4.5 9 0  5 9 0  5.5 9 0  6 9 0  6.5 9 0  7 9 0  7.5 9 0  8 9 0  8.5 9 0  9 9 0  9.5 9 0  10 9 0  10.5 9 0  11 9 0  11.5 9 0  12 9 0  12.5 9 0  13 9 0  13.5 9 0  14 9 0  14.5 9 0  15 9 0  15.5 9 0  16 9 0  16.5 9 0  17 9 0  17.5 9 0  18 9 0  18.5 9 0  19 9 0  19.5 9 0  20 9 0  0 9.5 0  0.5 9.5 0  1 9.5 0  1.5 9.5 0  2 9.5 0  2.5 9.5 0  3 9.5 0  3.5 9.5 0  4 9.5 0  4.5 9.5 0  5 9.5 0  5.5 9.5 0  6 9.5 0  6.5 9.5 0  7 9.5 0  7.5 9.5 0  8 9.5 0  8.5 9.5 0  9 9.5 0  9.5 9.5 0  10 9.5 0  10.5 9.5 0  11 9.5 0  11.5 9.5 0  12 9.5 0  12.5 9.5 0  13 9.5 0  13.5 9.5 0  14 9.5 0  14.5 9.5 0  15 9.5 0  15.5 9.5 0  16 9.5 0  16.5 9.5 0  17 9.5 0  17.5 9.5 0  18 9.5 0  18.5 9.5 0  19 9.5 0  19.5 9.5 0  20 9.5 0  0 10 0  0.5 10 0  1 10 0  1.5 10 0  2 10 0  2.5 10 0  3 10 0  3.5 10 0  4 10 0  4.5 10 0  5 10 0  5.5 10 0  6 10 0  6.5 10 0  7 10 0  7.5 10 0  8 10 0  8.5 10 0  9 10 0  9.5 10 0  10 10 0  10.5 10 0  11 10 0  11.5 10 0  12 10 0  12.5 10 0  13 10 0  13.5 10 0  14 10 0  14.5 10 0  15 10 0  15.5 10 0  16 10 0  16.5 10 0  17 10 0  17.5 10 0  18 10 0  18.5 10 0  19 10 0  19.5 10 0  20 10 0  0 10.5 0  0.5 10.5 0  1 10.5 0  1.5 10.5 0  2 10.5 0  2.5 10.5 0  3 10.5 0  3.5 10.5 0  4 10.5 0  4.5 10.5 0  5 10.5 0  5.5 10.5 0  6 10.5 0  6.5 10.5 0  7 10.5 0  7.5 10.5 0  8 10.5 0  8.5 10.5 0  9 10.5 0  9.5 10.5 0  10 10.5 0  10.5 10.5 0  11 10.5 0  11.5 10.5 0  12 10.5 0  12.5 10.5 0  13 10.5 0  13.5 10.5 0  14 10.5 0  14.5 10.5 0  15 10.5 0  15.5 10.5 0  16 10.5 0  16.5 10.5 0  17 10.5 0  17.5 10.5 0  18 10.5 0  18.5 10.5 0  19 10.5 0  19.5 10.5 0  20 10.5 0  0 11 0  0.5 11 0  1 11 0  1.5 11 0  2 11 0  2.5 11 0  3 11 0  3.5 11 0  4 11 0  4.5 11 0  5 11 0  5.5 11 0  6 11 0  6.5 11 0  7 11 0  7.5 11 0  8 11 0  8.5 11 0  9 11 0  9.5 11 0  10 11 0  10.5 11 0  11 11 0  11.5 11 0  12 11 0  12.5 11 0  13 11 0  13.5 11 0  14 11 0  14.5 11 0  15 11 0  15.5 11 0  16 11 0  16.5 11 0  17 11 0  17.5 11 0  18 11 0  18.5 11 0  19 11 0  19.5 11 0  20 11 0  0 11.5 0  0.5 11.5 0  1 11.5 0  1.5 11.5 0  2 11.5 0  2.5 11.5 0  3 11.5 0  3.5 11.5 0  4 11.5 0  4.5 11.5 0  5 11.5 0  5.5 11.5 0  6 11.5 0  6.5 11.5 0  7 11.5 0  7.5 11.5 0  8 11.5 0  8.5 11.5 0  9 11.5 0  9.5 11.5 0  10 11.5 0  10.5 11.5 0  11 11.5 0  11.5 11.5 0  12 11.5 0  12.5 11.5 0  13 11.5 0  13.5 11.5 0  14 11.5 0  14.5 11.5 0  15 11.5 0  15.5 11.5 0  16 11.5 0  16.5 11.5 0  17 11.5 0  17.5 11.5 0  18 11.5 0  18.5 11.5 0  19 11.5 0  19.5 11.5 0  20 11.5 0  0 12 0  0.5 12 0  1 12 0  1.5 12 0  2 12 0  2.5 12 0  3 12 0  3.5 12 0  4 12 0  4.5 12 0  5 12 0  5.5 12 0  6 12 0  6.5 12 0  7 12 0  7.5 12 0  8 12 0  8.5 12 0  9 12 0  9.5 12 0  10 12 0  10.5 12 0  11 12 0  11.5 12 0  12 12 0  12.5 12 0  13 12 0  13.5 12 0  14 12 0  14.5 12 0  
[...]
<PointData  Scalars="f_2975-1"> 
<DataArray  type="Float64"  Name="f_2975-1"  format="ascii">-8.1939035275979355e-01  -8.1938839281053899e-01  -8.1938362948382004e-01  -8.1937549233597584e-01  -8.1936325726658266e-01  -8.1934590741575897e-01  -8.1932204635043682e-01  -8.1928980635736071e-01  -8.1924673635263134e-01  -8.1918966266387550e-01  -8.1911451764078513e-01  -8.1901613119528816e-01  -8.1888798022953835e-01  -8.1872189082539260e-01  -8.1850768818006259e-01  -8.1823278966586088e-01  -8.1788173714063306e-01  -8.1743566580565097e-01  -8.1687170855559621e-01  -8.1616233693058582e-01  -8.1527464247782411e-01  -8.1416956554030961e-01  -8.1280108214590641e-01  -8.1111536364798431e-01  -8.0904992787460772e-01  -8.0653280450011544e-01  -8.0348174078861234e-01  -7.9980347629209569e-01  -7.9539311591127515e-01  -7.9013362919646313e-01  -7.8389549896142152e-01  -7.7653653307218518e-01  -7.6790183822096159e-01  -7.5782393167944195e-01  -7.4612293360364101e-01  -7.3260673357108597e-01  -7.1707095062700610e-01  -6.9929838053286819e-01  -6.7905736629688829e-01  -6.5609783452270876e-01  -6.3014131957460917e-01  -8.1938839281053899e-01  -8.1938676555329415e-01  -8.1938206515546641e-01  -8.1937392646558072e-01  -8.1936166990931780e-01  -8.1934428828059880e-01  -8.1932038646407179e-01  -8.1928809568292649e-01  -8.1924496285004900e-01  -8.1918781172435662e-01  -8.1911257162096429e-01  -8.1901406897818008e-01  -8.1888577679911401e-01  -8.1871951686371369e-01  -8.1850510970710411e-01  -8.1822996774961798e-01  -8.1787862771081143e-01  -8.1743221960847079e-01  -8.1686787128968052e-01  -8.1615804960392624e-01  -8.1526984202267350e-01  -8.1416418571569693e-01  -8.1279505474548031e-01  -8.1110862001330941e-01  -8.0904240069023281e-01  -8.0652442981636230e-01  -8.0347246018114449e-01  -7.9979323902466437e-01  -7.9538188092159279e-01  -7.9012136667925925e-01  -7.8388219128694137e-01  -7.7652217477473795e-01  -7.6788643487646069e-01  -7.5780749781889944e-01  -7.4610549086047007e-01  -7.3258831365772692e-01  -7.1705161950920704e-01  -6.9927834461781169e-01  -6.7903740380533384e-01  -6.5608109958352145e-01  -6.3014131957460917e-01  -8.1938362948382004e-01  -8.1938206515546641e-01  -8.1937739548488997e-01  -8.1936925785766124e-01  -8.1935698549399560e-01  -8.1933957751544706e-01  -8.1931564081415209e-01  -8.1928330647107162e-01  -8.1924012015143899e-01  -8.1918290369864899e-01  -8.1910758402147754e-01  -8.1900898473493866e-01  -8.1888057564012096e-01  -8.1871417496944388e-01  -8.1849959940903039e-01  -8.1822425729329074e-01  -8.1787268111090827e-01  -8.1742599662843951e-01  -8.1686132758227470e-01  -8.1615113705082898e-01  -8.1526250931102051e-01  -8.1415637918608064e-01  -8.1278671953934778e-01  -8.1109970153711297e-01  -8.0903284639909556e-01  -8.0651419130182345e-01  -8.0346149552730173e-01  -7.9978151537832598e-01  -7.9536937721230472e-01  -7.9010807643916825e-01  -7.8386812558842234e-01  -7.7650736548812727e-01  -7.6787093888705438e-01  -7.5779140384092580e-01  -7.4608893277814681e-01  -7.3257149968056778e-01  -7.1703489906547280e-01  -6.9926236382103502e-01  -6.7902345686540810e-01  -6.5607182238059802e-01  -6.3014131957460917e-01  -8.1937549233597584e-01  -8.1937392646558072e-01  -8.1936925785766113e-01  -8.1936111224506281e-01  -8.1934882302539558e-01  -8.1933139101731145e-01  -8.1930742394580247e-01  -8.1927505274024925e-01  -8.1923182217967205e-01  -8.1917455268879957e-01  -8.1909916934372573e-01  -8.1900049357779947e-01  -8.1887199270178002e-01  -8.1870548218387906e-01  -8.1849077571386797e-01  -8.1821527845509334e-01  -8.1786351963034787e-01  -8.1741662175337537e-01  -8.1685170546138564e-01  -8.1614123106403880e-01  -8.1525228061523891e-01  -8.1414578751536359e-01  -8.1277572429709133e-01  -8.1108826321406458e-01  -8.0902092834489892e-01  -8.0650176187030875e-01  -8.0344853060896959e-01  -7.9976800133214432e-01  -7.9535531422226435e-01  -7.9009348236655330e-01  -7.8385304050118898e-01  -7.7649185728532011e-01  -7.6785511091290026e-01  -7.5777540630969975e-01  -7.4607298157088286e-01  -7.3255590915585089e-01  -7.1702014024674554e-01  -6.9924916348533928e-01  -6.7901294268283896e-01  -6.5606563802157825e-01  -6.3014131957460917e-01  -8.1936325726658255e-01  -8.1936166990931780e-01  -8.1935698549399560e-01  -8.1934882302539558e-01  -8.1933651382801131e-01  -8.1931905843973241e-01  -8.1929506454933221e-01  -8.1926266278157989e-01  -8.1921939725116866e-01  -8.1916208738792717e-01  -8.1908665698853689e-01  -8.1898792596092840e-01  -8.1885935987588299e-01  -8.1869277227783654e-01  -8.1847797478588835e-01  -8.1820237039506327e-01  -8.1785048612943900e-01  -8.1740344236427298e-01  -8.1683835777765978e-01  -8.1612769105212957e-01  -8.1523852313710821e-01  -8.1413178708384548e-01  -8.1276145610906536e-01  -8.1107370450856331e-01  -8.0900606013417642e-01  -8.0648657109235911e-01  -8.0343301275176682e-01  -7.9975216358682644e-01  -7.9533917924203978e-01  -7.9007709275352744e-01  -7.8383646423704967e-01  -7.7647519449947056e-01  -7.6783850269426468e-01  -7.5775904677334271e-01  -7.4605713509794058e-01  -7.3254093540644805e-01  -7.1700652916004348e-01  -6.9923757770491046e-01  -6.7900424707319784e-01  -6.5606084859257852e-01  -6.3014131957460917e-01  -8.1934590741575886e-01  -8.1934428828059880e-01  -8.1933957751544706e-01  -8.1933139101731145e-01  -8.1931905843973241e-01  -8.1930157963567463e-01  -8.1927756197968260e-01  -8.1924513580483338e-01  -8.1920184481912195e-01  -8.1914450789726612e-01  -8.1906904813926507e-01  -8.1897028463420085e-01  -8.1884168203503216e-01  -8.1867505289572007e-01  -8.1846020780413054e-01  -8.1818454872438662e-01  -8.1783260170449323e-01  -8.1738548627108076e-01  -8.1682032047705455e-01  -8.1610956272839463e-01  -8.1522029420738851e-01  -8.1411344891064519e-01  -8.1274300196500027e-01  -8.1105513084918479e-01  -8.0898736824084183e-01  -8.0646776915277696e-01  -8.0341411845160071e-01  -7.9973320729336872e-01  -7.9532020787410473e-01  -7.9005817445655502e-01  -7.8381769402772505e-01  -7.7645670111910958e-01  -7.6782045701547708e-01  -7.5774167220707478e-01  -7.4604072041839897e-01  -7.3252584988456027e-01  -7.1699323800769565e-01  -6.9922665085501334e-01  -6.7899634367434747e-01  -6.5605664241528672e-01  -6.3014131957460917e-01  -8.1932204635043671e-01  -8.1932038646407168e-01  -8.1931564081415209e-01  -8.1930742394580247e-01  -8.1929506454933221e-01  -8.1927756197968260e-01  -8.1925352340227042e-01  -8.1922107906747776e-01  -8.1917777263720892e-01  -8.1912042294377641e-01  -8.1904495304753544e-01  -8.1894618201502301e-01  -8.1881757451501314e-01  -8.1865094318080911e-01  -8.1843609877211643e-01  -8.1816044355171036e-01  -8.1780850403540173e-01  -8.1736140044088879e-01  -8.1679625180617166e-01  -8.1608551790994033e-01  -8.1519628181872505e-01  -8.1408948008791771e-01  -8.1271909128951680e-01  -8.1103129750468250e-01  -8.0896363751065181e-01  -8.0644417433474669e-01  -8.0339070327550599e-01  -7.9971002892977994e-01  -7.9529734062492741e-01  -7.9003571421543628e-01  -7.8379576359159209e-01  -7.7643545641334588e-01  -7.6780009424311713e-01  -7.5772243579149134e-01  -7.4602291125515907e-01  -7.3250983260693514e-01  -7.1697944429220550e-01  -6.9921557274615953e-01  -6.7898850642568431e-01  -6.5605254258920409e-01  -6.3014131957460917e-01  -8.1928980635736071e-01  -8.1928809568292649e-01  -8.1928330647107150e-01  -8.1927505274024914e-01  -8.1926266278157989e-01  -8.1924513580483338e-01  -8.1922107906747776e-01  -8.1918862309894780e-01  -8.1914531199298612e-01  -8.1908796515735249e-01  -8.1901250638151069e-01  -8.1891375563625168e-01  -8.1878517869686751e-01  -8.1861858953476230e-01  -8.1840380050925110e-01  -8.1812821577455841e-01  -8.1777636406158072e-01  -8.1732936816239932e-01  -8.1676435009221726e-01  -8.1605377306698235e-01  -8.1516472412939767e-01  -8.1405814446041547e-01  -8.1268801806084945e-01  -8.1100053345410128e-01  -8.0893323715242371e-01  -8.0641420157060839e-01  -8.0336123349433741e-01  -7.9968115164251652e-01  -7.9526916271302028e-01  -7.9000836384667561e-01  -7.8376939481076924e-01  -7.7641025433468314e-01  -7.6777628063352055e-01  -7.5770027459608702e-01  -7.4600271320755074e-01  -7.3249195738270900e-01  -7.1696429760259872e-01  -6.9920359436025259e-01  -6.7898014387842032e-01  -6.5604820602585900e-01  -6.3014131957460917e-01  -8.1924673635263123e-01  -8.1924496285004900e-01  -8.1924012015143899e-01  -8.1923182217967205e-01  -8.1921939725116855e-01  -8.1920184481912195e-01  -8.1917777263720892e-01  -8.1914531199298612e-01  -8.1910200800998945e-01  -8.1904468141769993e-01  -8.1896925765013451e-01  -8.1887055868344605e-01  -8.1874205269994504e-01  -8.1857555651974601e-01  -8.1836088582890698e-01  -8.1808544861711796e-01  -8.1773377798364899e-01  -8.1728700164011947e-01  -8.1672224708720254e-01  -8.1601198360828842e-01  -8.1512330492028140e-01  -8.1401715952897080e-01  -8.1264753948663493e-01  -8.1096064221781350e-01  -8.0889402417109013e-01  -8.0637576899435670e-01  -8.0332369634929635e-01  -7.9964463990352475e-01  -7.9523382387414621e-01  -7.8997436602030557e-01  -7.8373693031855585e-01  -7.7637954364441331e-01  -7.6774757632909663e-01  -7.5767386482212207e-01  -7.4597892368145224e-01  -7.3247115060170609e-01  -7.1694686732600965e-01  -6.9918995299065734e-01  -6.7897070046917007e-01  -6.5604333426414907e-01  -6.3014131957460917e-01  -8.1918966266387538e-01  -8.1918781172435662e-01  -8.1918290369864899e-01  -8.1917455268879957e-01  -8.1916208738792717e-01  -8.1914450789726623e-01  -8.1912042294377641e-01  -8.1908796515735249e-01  -8.1904468141769982e-01  -8.1898739467559534e-01  -8.1891203310971739e-01  -8.1881342202680307e-01  -8.1868503358852551e-01  -8.1851868930179839e-01  -8.1830421029691858e-01  -8.1802901080253387e-01  -8.1767763097288360e-01  -8.1723120639394864e-01  -8.1666687324567255e-01  -8.1595711026599527e-01  -8.1506902136288484e-01  -8.1396356593152019e-01  -8.1259474758767736e-01  -8.1090877599968636e-01  -8.0884322059472080e-01  -8.0632617885370472e-01  -8.0327548532241055e-01  -7.9959798987889341e-01  -7.9518893461615503e-01  -7.8993145719863478e-01  -7.8369624385487102e-01  -7.7634134621706063e-01  -7.6771216171482037e-01  -7.5764155553851609e-01  -7.4595007112969836e-01  -7.3244613262327973e-01  -7.1692608185436890e-01  -6.9917380646381044e-01  -6.7895959017390073e-01  -6.5603762524882903e-01  -6.3014131957460917e-01  -8.1911451764078513e-01  -8.1911257162096429e-01  -8.1910758402147754e-01  -8.1909916934372573e-01  -8.1908665698853689e-01  -8.1906904813926507e-01  -8.1904495304753544e-01  -8.1901250638151069e-01  -8.1896925765013451e-01  -8.1891203310971739e-01  -8.1883676501299962e-01  -8.1873828360512091e-01  -8.1861006694495686e-01  -8.1844394348255700e-01  -8.1822974241051383e-01  -8.1795488719150045e-01  -8.1760392841104235e-01  -8.1715801327684268e-01  -8.1659429073841705e-01  -8.1588525337224838e-01  -8.1499801988191545e-01  -8.1389356527817636e-01  -8.1252590946277781e-01  -8.1084127891560320e-01  -8.0877726028137809e-01  -8.0626196859128985e-01  -8.0321325626478046e-01  -7.9953799144044202e-01  -7.9513143498794314e-01  -7.8987674402915498e-01  -7.8364462506918808e-01  -7.7629315084891903e-01  -7.6766774048699515e-01  -7.5760128075174049e-01  -7.4591433522732697e-01  -7.3241534462652680e-01  -7.1690066078514592e-01  -6.9915417101143862e-01  -6.7894614439388279e-01  -6.5603074119793270e-01  -6.3014131957460917e-01  -8.1901613119528816e-01  -8.1901406897818008e-01  -8.1900898473493877e-01  -8.1900049357779947e-01  -8.1898792596092851e-01  -8.1897028463420085e-01  -8.1894618201502301e-01  -8.1891375563625168e-01  -8.1887055868344605e-01  -8.1881342202680307e-01  -8.1873828360512091e-01  -8.1863998056148379e-01  -8.1851199920260187e-01  -8.1834617770446638e-01  -8.1813235657282213e-01  -8.1785797225053392e-01  -8.1750759001050410e-01  -8.1706237344562327e-01  -8.1649948952131379e-01  -8.1579145033054690e-01  -8.1490539539966544e-01  -8.1380232161429100e-01  -8.1243627149966335e-01  -8.1075349457208556e-01  -8.0869160058041434e-01  -8.0617872739917629e-01  -8.0313274974454796e-01  -7.9946055728242627e-01  -7.9505743148823049e-01  -7.8980654907393089e-01  -7.8357863504241376e-01  -7.7623177940674926e-01  -7.6761141703409075e-01  -7.5755044831941554e-01  -7.4586944731107896e-01  -7.3237686042848527e-01  -7.1686903828616677e-01  -6.9912985745505984e-01  -6.7892956420678396e-01  -6.5602228219779812e-01  -6.3014131957460917e-01  -8.1888798022953835e-01  -8.1888577679911401e-01  -8.1888057564012096e-01  -8.1887199270178002e-01  -8.1885935987588299e-01  -8.1884168203503216e-01  -8.1881757451501314e-01  -8.1878517869686751e-01  -8.1874205269994504e-01  -8.1868503358852540e-01  -8.1861006694495686e-01  -8.1851199920260187e-01  -8.1838432780196546e-01  -8.1821890408195075e-01  -8.1800558390201095e-01  -8.1773182137284539e-01  -8.1738220181875876e-01  -8.1693791126742765e-01  -8.1637614141793946e-01  -8.1566943121490498e-01  -8.1478494886929154e-01  -8.1368372139379008e-01  -8.1231982239342282e-01  -8.1063953284327728e-01  -8.0858049369642981e-01  -8.0607087311536896e-01  -8.0302857453443655e-01  -7.9936051415841181e-01  -7.9496199728566586e-01  -7.8971622128509034e-01  -7.8349392827750963e-01  -7.7615322152035271e-01  -7.6753954488521559e-01  -7.5748580303773116e-01  -7.4581256883682134e-01  -7.3232828101059677e-01  -7.1682927460987989e-01  -6.9909940119193448e-01  -6.7890887111544651e-01  -6.5601176053351551e-01  -6.3014131957460917e-01  -8.1872189082539260e-01  -8.1871951686371380e-01  -8.1871417496944388e-01  -8.1870548218387906e-01  -8.1869277227783654e-01  -8.1867505289572007e-01  -8.1865094318080900e-01  -8.1861858953476230e-01  -8.1857555651974612e-01  -8.1851868930179839e-01  -8.1844394348255700e-01  -8.1834617770446627e-01  -8.1821890408195075e-01  -8.1805399135666834e-01  -8.1784131575577745e-01  -8.1756835491120317e-01  -8.1721972094105599e-01  -8.1677662996561318e-01  -8.1621630698544345e-01  -8.1551132722813591e-01  -8.1462889778720671e-01  -8.1353008661075266e-01  -8.1216900957972227e-01  -8.1049199041843878e-01  -8.0843671230414860e-01  -8.0593138400557984e-01  -8.0289394680588966e-01  -7.9923135087019059e-01  -7.9483893050214693e-01  -7.8959990616776965e-01  -7.8338503636981283e-01  -7.7605243337963881e-01  -7.6744754219445799e-01  -7.5740326027877436e-01  -7.4574014453800885e-01  -7.3226660851646985e-01  -7.1677895229678812e-01  -6.9906098212465040e-01  -6.7888285237856705e-01  -6.5599857297172781e-01  -6.3014131957460917e-01  -8.1850768818006259e-01  -8.1850510970710411e-01  -8.1849959940903039e-01  -8.1849077571386797e-01  -8.1847797478588835e-01  -8.1846020780413054e-01  -8.1843609877211654e-01  -8.1840380050925110e-01  -8.1836088582890698e-01  -8.1830421029691858e-01  -8.1822974241051383e-01  -8.1813235657282202e-01  -8.1800558390201095e-01  -8.1784131575577745e-01  -8.1762945492847061e-01  -8.1735750985287159e-01  -8.1701012787788119e-01  -8.1656856486157992e-01  -8.1601008997278601e-01  -8.1530732677383400e-01  -8.1442753437802073e-01  -8.1333183571624323e-01  -8.1197440364049622e-01  -8.1030161960924074e-01  -8.0825122384149917e-01  -8.0575147980944239e-01  -8.0272037938444030e-01  -7.9906491737388929e-01  -7.9468046498279932e-01  -7.8945027017211855e-01  -7.8324510808504688e-01  -7.7592309561868811e-01  -7.6732966955192616e-01  -7.5729770579792155e-01  -7.4564772620707576e-01  -7.3218809587160216e-01  -7.1671505337628028e-01  -6.9901233104250016e-01  -6.7884999794012313e-01  -6.5598196915888474e-01  -6.3014131957460917e-01  -8.1823278966586088e-01  -8.1822996774961798e-01  -8.1822425729329074e-01  -8.1821527845509334e-01  -8.1820237039506327e-01  -8.1818454872438662e-01  -8.1816044355171036e-01  -8.1812821577455841e-01  -8.1808544861711796e-01  -8.1802901080253398e-01  -8.1795488719150045e-01  -8.1785797225053392e-01  -8.1773182137284539e-01  -8.1756835491120317e-01  -8.1735750985287159e-01  -8.1708683443523200e-01  -8.1674102173379148e-01  -8.1630137941712944e-01  -8.1574523451317049e-01  -8.1504527420947814e-01  -8.1416882643319066e-01  -8.1307708720397753e-01  -8.1172430545845764e-01  -8.1005694007941909e-01  -8.0801280802811926e-01  -8.0552024648860554e-01  -8.0249731540894109e-01  -7.9885106927764782e-01  -7.9447692779830703e-01  -7.8925817358403161e-01  -7.8306560020223959e-01  -7.7575732480096971e-01  -7.6717876485991776e-01  -7.5716275673044742e-01  -7.4552976244044455e-01  -7.3208806771988411e-01  -7.1663381366715861e-01  -6.9895061908999168e-01  -6.7880842637438987e-01  -6.5596101469027934e-01  -6.3014131957460917e-01  -8.1788173714063317e-01  -8.1787862771081143e-01  -8.1787268111090827e-01  -8.1786351963034776e-01  -8.1785048612943911e-01  -8.1783260170449323e-01  -8.1780850403540173e-01  -8.1777636406158072e-01  -8.1773377798364899e-01  -8.1767763097288371e-01  -8.1760392841104246e-01  -8.1750759001050410e-01  -8.1738220181875876e-01  -8.1721972094105599e-01  -8.1701012787788119e-01  -8.1674102173379148e-01  -8.1639715427825499e-01  -8.1595989999344665e-01  -8.1540666088671632e-01  -8.1471020701936803e-01  -8.1383795642604173e-01  -8.1275120135203305e-01  -8.1140429145317206e-01  -8.0974378865802810e-01  -8.0770761258594681e-01  -8.0522419946221513e-01  -8.0221170099171246e-01  -7.9857725215434117e-01  -7.9421633775904643e-01  -7.8901228609589502e-01  -7.8283591326695068e-01  -7.7554533269215498e-01  -7.6698592958970757e-01  -7.5699047831694877e-01  -7.4537934921092630e-01  -7.3196070797358503e-01  -7.1653055003653987e-01  -6.9887232690920564e-01  -6.7875579737130498e-01  -6.5593454753676750e-01  -6.3014131957460917e-01  -8.1743566580565097e-01  -8.1743221960847090e-01  -8.1742599662843940e-01  -8.1741662175337537e-01  -8.1740344236427298e-01  -8.1738548627108065e-01  -8.1736140044088867e-01  -8.1732936816239932e-01  -8.1728700164011947e-01  -8.1723120639394875e-01  -8.1715801327684268e-01  -8.1706237344562327e-01  -8.1693791126742765e-01  -8.1677662996561318e-01  -8.1656856486157992e-01  -8.1630137941712944e-01  -8.1595989999344665e-01  -8.1552558638437811e-01  -8.1497593681288250e-01  -8.1428382824459933e-01  -8.1341679559089242e-01  -8.1233625662919384e-01  -8.1099669319703582e-01  -8.0934480329339886e-01  -8.0731864294920053e-01  -8.0484678082405847e-01  -8.0184749206657846e-01  -7.9822802054771247e-01  -7.9388393952662961e-01  -7.8869863938698215e-01  -7.8254296638904475e-01  -7.7527502734507414e-01  -7.6674016044430493e-01  -7.5677105051710980e-01  -7.4518793571497366e-01  -7.3179880888418247e-01  -7.1639945617306255e-01  -6.9877308986222531e-01  -6.7868920822096890e-01  -6.5590112651270793e-01  -6.3014131957460917e-01  -8.1687170855559621e-01  -8.1686787128968052e-01  -8.1686132758227470e-01  -8.1685170546138564e-01  -8.1683835777765967e-01  -8.1682032047705455e-01  -8.1679625180617155e-01  -8.1676435009221726e-01  -8.1672224708720254e-01  -8.1666687324567255e-01  -8.1659429073841705e-01  -8.1649948952131379e-01  -8.1637614141793946e-01  -8.1621630698544345e-01  -8.1601008997278601e-01  -8.1574523451317049e-01  -8.1540666088671632e-01  -8.1497593681288250e-01  -8.1443068284578413e-01  -8.1374391259552858e-01  -8.1288331120689516e-01  -8.1181045877967917e-01  -8.1048000915193674e-01  -8.0883883856700456e-01  -8.0682518301269290e-01  -8.0436778717477353e-01  -8.0138509160532290e-01  -7.9778448737577090e-01  -7.9346166854604439e-01  -7.8830011147838897e-01  -7.8217070544644440e-01  -7.7493155004689540e-01  -7.6642792029780660e-01  -7.5649237837428573e-01  -7.4494497955588845e-01  -7.3159347612839487e-01  -7.1623336205264465e-01  -6.9864751544539516e-01  -6.7860507156724237e-01  -6.5585897038160135e-01  -6.3014131957460917e-01  -8.1616233693058582e-01  -8.1615804960392624e-01  -8.1615113705082887e-01  -8.1614123106403869e-01  -8.1612769105212946e-01  -8.1610956272839452e-01  -8.1608551790994022e-01  -8.1605377306698224e-01  -8.1601198360828842e-01  -8.1595711026599527e-01  -8.1588525337224838e-01  -8.1579145033054679e-01  -8.1566943121490498e-01  -8.1551132722813591e-01  -8.1530732677383388e-01  -8.1504527420947814e-01  -8.1471020701936803e-01  -8.1428