<?xml version="1.0"?>
<VTKFile type="UnstructuredGrid"  version="0.1"  >
<UnstructuredGrid>
<Piece  NumberOfPoints="1681" NumberOfCells="3200">
<Points>
<DataArray  type="Float64"  NumberOfComponents="3"  format="ascii">0 0 0  0.5 0 0  1 0 0  1.5 0 0  2 0 0  2.5 0 0  3 0 0  3.5 0 0  4 0 0  4.5 0 0  5 0 0  5.5 0 0  6 0 0  6.5 0 0  7 0 0  7.5 0 0  8 0 0  8.5 0 0  9 0 0  9.5 0 0  10 0 0  10.5 0 0  11 0 0  11.5 0 0  12 0 0  12.5 0 0  13 0 0  13.5 0 0  14 0 0  14.5 0 0  15 0 0  15.5 0 0  16 0 0  16.5 0 0  17 0 0  17.5 0 0  18 0 0  18.5 0 0  19 0 0  19.5 0 0  20 0 0  0 0.5 0  0.5 0.5 0  1 0.5 0  1.5 0.5 0  2 0.5 0  2.5 0.5 0  3 0.5 0  3.5 0.5 0  4 0.5 0  4.5 0.5 0  5 0.5 0  5.5 0.5 0  6 0.5 0  6.5 0.5 0  7 0.5 0  7.5 0.5 0  8 0.5 0  8.5 0.5 0  9 0.5 0  9.5 0.5 0  10 0.5 0  10.5 0.5 0  11 0.5 0  11.5 0.5 0  12 0.5 0  12.5 0.5 0  13 0.5 0  13.5 0.5 0  14 0.5 0  14.5 0.5 0  15 0.5 0  15.5 0.5 0  16 0.5 0  16.5 0.5 0  17 0.5 0  17.5 0.5 0  18 0.5 0  18.5 0.5 0  19 0.5 0  19.5 0.5 0  20 0.5 0  0 1 0  0.5 1 0  1 1 0  1.5 1 0  2 1 0  2.5 1 0  3 1 0  3.5 1 0  4 1 0  4.5 1 0  5 1 0  5.5 1 0  6 1 0  6.5 1 0  7 1 0  7.5 1 0  8 1 0  8.5 1 0  9 1 0  9.5 1 0  10 1 0  10.5 1 0  11 1 0  11.5 1 0  12 1 0  12.5 1 0  13 1 0  13.5 1 0  14 1 0  14.5 1 0  15 1 0  15.5 1 0  16 1 0  16.5 1 0  17 1 0  17.5 1 0  18 1 0  18.5 1 0  19 1 0  19.5 1 0  20 1 0  0 1.5 0  0.5 1.5 0  1 1.5 0  1.5 1.5 0  2 1.5 0  2.5 1.5 0  3 1.5 0  3.5 1.5 0  4 1.5 0  4.5 1.5 0  5 1.5 0  5.5 1.5 0  6 1.5 0  6.5 1.5 0  7 1.5 0  7.5 1.5 0  8 1.5 0  8.5 1.5 0  9 1.5 0  9.5 1.5 0  10 1.5 0  10.5 1.5 0  11 1.5 0  11.5 1.5 0  12 1.5 0  12.5 1.5 0  13 1.5 0  13.5 1.5 0  14 1.5 0  14.5 1.5 0  15 1.5 0  15.5 1.5 0  16 1.5 0  16.5 1.5 0  17 1.5 0  17.5 1.5 0  18 1.5 0  18.5 1.5 0  19 1.5 0  19.5 1.5 0  20 1.5 0  0 2 0  0.5 2 0  1 2 0  1.5 2 0  2 2 0  2.5 2 0  3 2 0  3.5 2 0  4 2 0  4.5 2 0  5 2 0  5.5 2 0  6 2 0  6.5 2 0  7 2 0  7.5 2 0  8 2 0  8.5 2 0  9 2 0  9.5 2 0  10 2 0  10.5 2 0  11 2 0  11.5 2 0  12 2 0  12.5 2 0  13 2 0  13.5 2 0  14 2 0  14.5 2 0  15 2 0  15.5 2 0  16 2 0  16.5 2 0  17 2 0  17.5 2 0  18 2 0  18.5 2 0  19 2 0  19.5 2 0  20 2 0  0 2.5 0  0.5 2.5 0  1 2.5 0  1.5 2.5 0  2 2.5 0  2.5 2.5 0  3 2.5 0  3.5 2.5 0  4 2.5 0  4.5 2.5 0  5 2.5 0  5.5 2.5 0  6 2.5 0  6.5 2.5 0  7 2.5 0  7.5 2.5 0  8 2.5 0  8.5 2.5 0  9 2.5 0  9.5 2.5 0  10 2.5 0  10.5 2.5 0  11 2.5 0  11.5 2.5 0  12 2.5 0  12.5 2.5 0  13 2.5 0  13.5 2.5 0  14 2.5 0  14.5 2.5 0  15 2.5 0  15.5 2.5 0  16 2.5 0  16.5 2.5 0  17 2.5 0  17.5 2.5 0  18 2.5 0  18.5 2.5 0  19 2.5 0  19.5 2.5 0  20 2.5 0  0 3 0  0.5 3 0  1 3 0  1.5 3 0  2 3 0  2.5 3 0  3 3 0  3.5 3 0  4 3 0  4.5 3 0  5 3 0  5.5 3 0  6 3 0  6.5 3 0  7 3 0  7.5 3 0  8 3 0  8.5 3 0  9 3 0  9.5 3 0  10 3 0  10.5 3 0  11 3 0  11.5 3 0  12 3 0  12.5 3 0  13 3 0  13.5 3 0  14 3 0  14.5 3 0  15 3 0  15.5 3 0  16 3 0  16.5 3 0  17 3 0  17.5 3 0  18 3 0  18.5 3 0  19 3 0  19.5 3 0  20 3 0  0 3.5 0  0.5 3.5 0  1 3.5 0  1.5 3.5 0  2 3.5 0  2.5 3.5 0  3 3.5 0  3.5 3.5 0  4 3.5 0  4.5 3.5 0  5 3.5 0  5.5 3.5 0  6 3.5 0  6.5 3.5 0  7 3.5 0  7.5 3.5 0  8 3.5 0  8.5 3.5 0  9 3.5 0  9.5 3.5 0  10 3.5 0  10.5 3.5 0  11 3.5 0  11.5 3.5 0  12 3.5 0  12.5 3.5 0  13 3.5 0  13.5 3.5 0  14 3.5 0  14.5 3.5 0  15 3.5 0  15.5 3.5 0  16 3.5 0  16.5 3.5 0  17 3.5 0  17.5 3.5 0  18 3.5 0  18.5 3.5 0  19 3.5 0  19.5 3.5 0  20 3.5 0  0 4 0  0.5 4 0  1 4 0  1.5 4 0  2 4 0  2.5 4 0  3 4 0  3.5 4 0  4 4 0  4.5 4 0  5 4 0  5.5 4 0  6 4 0  6.5 4 0  7 4 0  7.5 4 0  8 4 0  8.5 4 0  9 4 0  9.5 4 0  10 4 0  10.5 4 0  11 4 0  11.5 4 0  12 4 0  12.5 4 0  13 4 0  13.5 4 0  14 4 0  14.5 4 0  15 4 0  15.5 4 0  16 4 0  16.5 4 0  17 4 0  17.5 4 0  18 4 0  18.5 4 0  19 4 0  19.5 4 0  20 4 0  0 4.5 0  0.5 4.5 0  1 4.5 0  1.5 4.5 0  2 4.5 0  2.5 4.5 0  3 4.5 0  3.5 4.5 0  4 4.5 0  4.5 4.5 0  5 4.5 0  5.5 4.5 0  6 4.5 0  6.5 4.5 0  7 4.5 0  7.5 4.5 0  8 4.5 0  8.5 4.5 0  9 4.5 0  9.5 4.5 0  10 4.5 0  10.5 4.5 0  11 4.5 0  11.5 4.5 0  12 4.5 0  12.5 4.5 0  13 4.5 0  13.5 4.5 0  14 4.5 0  14.5 4.5 0  15 4.5 0  15.5 4.5 0  16 4.5 0  16.5 4.5 0  17 4.5 0  17.5 4.5 0  18 4.5 0  18.5 4.5 0  19 4.5 0  19.5 4.5 0  20 4.5 0  0 5 0  0.5 5 0  1 5 0  1.5 5 0  2 5 0  2.5 5 0  3 5 0  3.5 5 0  4 5 0  4.5 5 0  5 5 0  5.5 5 0  6 5 0  6.5 5 0  7 5 0  7.5 5 0  8 5 0  8.5 5 0  9 5 0  9.5 5 0  10 5 0  10.5 5 0  11 5 0  11.5 5 0  12 5 0  12.5 5 0  13 5 0  13.5 5 0  14 5 0  14.5 5 0  15 5 0  15.5 5 0  16 5 0  16.5 5 0  17 5 0  17.5 5 0  18 5 0  18.5 5 0  19 5 0  19.5 5 0  20 5 0  0 5.5 0  0.5 5.5 0  1 5.5 0  1.5 5.5 0  2 5.5 0  2.5 5.5 0  3 5.5 0  3.5 5.5 0  4 5.5 0  4.5 5.5 0  5 5.5 0  5.5 5.5 0  6 5.5 0  6.5 5.5 0  7 5.5 0  7.5 5.5 0  8 5.5 0  8.5 5.5 0  9 5.5 0  9.5 5.5 0  10 5.5 0  10.5 5.5 0  11 5.5 0  11.5 5.5 0  12 5.5 0  12.5 5.5 0  13 5.5 0  13.5 5.5 0  14 5.5 0  14.5 5.5 0  15 5.5 0  15.5 5.5 0  16 5.5 0  16.5 5.5 0  17 5.5 0  17.5 5.5 0  18 5.5 0  18.5 5.5 0  19 5.5 0  19.5 5.5 0  20 5.5 0  0 6 0  0.5 6 0  1 6 0  1.5 6 0  2 6 0  2.5 6 0  3 6 0  3.5 6 0  4 6 0  4.5 6 0  5 6 0  5.5 6 0  6 6 0  6.5 6 0  7 6 0  7.5 6 0  8 6 0  8.5 6 0  9 6 0  9.5 6 0  10 6 0  10.5 6 0  11 6 0  11.5 6 0  12 6 0  12.5 6 0  13 6 0  13.5 6 0  14 6 0  14.5 6 0  15 6 0  15.5 6 0  16 6 0  16.5 6 0  17 6 0  17.5 6 0  18 6 0  18.5 6 0  19 6 0  19.5 6 0  20 6 0  0 6.5 0  0.5 6.5 0  1 6.5 0  1.5 6.5 0  2 6.5 0  2.5 6.5 0  3 6.5 0  3.5 6.5 0  4 6.5 0  4.5 6.5 0  5 6.5 0  5.5 6.5 0  6 6.5 0  6.5 6.5 0  7 6.5 0  7.5 6.5 0  8 6.5 0  8.5 6.5 0  9 6.5 0  9.5 6.5 0  10 6.5 0  10.5 6.5 0  11 6.5 0  11.5 6.5 0  12 6.5 0  12.5 6.5 0  13 6.5 0  13.5 6.5 0  14 6.5 0  14.5 6.5 0  15 6.5 0  15.5 6.5 0  16 6.5 0  16.5 6.5 0  17 6.5 0  17.5 6.5 0  18 6.5 0  18.5 6.5 0  19 6.5 0  19.5 6.5 0  20 6.5 0  0 7 0  0.5 7 0  1 7 0  1.5 7 0  2 7 0  2.5 7 0  3 7 0  3.5 7 0  4 7 0  4.5 7 0  5 7 0  5.5 7 0  6 7 0  6.5 7 0  7 7 0  7.5 7 0  8 7 0  8.5 7 0  9 7 0  9.5 7 0  10 7 0  10.5 7 0  11 7 0  11.5 7 0  12 7 0  12.5 7 0  13 7 0  13.5 7 0  14 7 0  14.5 7 0  15 7 0  15.5 7 0  16 7 0  16.5 7 0  17 7 0  17.5 7 0  18 7 0  18.5 7 0  19 7 0  19.5 7 0  20 7 0  0 7.5 0  0.5 7.5 0  1 7.5 0  1.5 7.5 0  2 7.5 0  2.5 7.5 0  3 7.5 0  3.5 7.5 0  4 7.5 0  4.5 7.5 0  5 7.5 0  5.5 7.5 0  6 7.5 0  6.5 7.5 0  7 7.5 0  7.5 7.5 0  8 7.5 0  8.5 7.5 0  9 7.5 0  9.5 7.5 0  10 7.5 0  10.5 7.5 0  11 7.5 0  11.5 7.5 0  12 7.5 0  12.5 7.5 0  13 7.5 0  13.5 7.5 0  14 7.5 0  14.5 7.5 0  15 7.5 0  15.5 7.5 0  16 7.5 0  16.5 7.5 0  17 7.5 0  17.5 7.5 0  18 7.5 0  18.5 7.5 0  19 7.5 0  19.5 7.5 0  20 7.5 0  0 8 0  0.5 8 0  1 8 0  1.5 8 0  2 8 0  2.5 8 0  3 8 0  3.5 8 0  4 8 0  4.5 8 0  5 8 0  5.5 8 0  6 8 0  6.5 8 0  7 8 0  7.5 8 0  8 8 0  8.5 8 0  9 8 0  9.5 8 0  10 8 0  10.5 8 0  11 8 0  11.5 8 0  12 8 0  12.5 8 0  13 8 0  13.5 8 0  14 8 0  14.5 8 0  15 8 0  15.5 8 0  16 8 0  16.5 8 0  17 8 0  17.5 8 0  18 8 0  18.5 8 0  19 8 0  19.5 8 0  20 8 0  0 8.5 0  0.5 8.5 0  1 8.5 0  1.5 8.5 0  2 8.5 0  2.5 8.5 0  3 8.5 0  3.5 8.5 0  4 8.5 0  4.5 8.5 0  5 8.5 0  5.5 8.5 0  6 8.5 0  6.5 8.5 0  7 8.5 0  7.5 8.5 0  8 8.5 0  8.5 8.5 0  9 8.5 0  9.5 8.5 0  10 8.5 0  10.5 8.5 0  11 8.5 0  11.5 8.5 0  12 8.5 0  12.5 8.5 0  13 8.5 0  13.5 8.5 0  14 8.5 0  14.5 8.5 0  15 8.5 0  15.5 8.5 0  16 8.5 0  16.5 8.5 0  17 8.5 0  17.5 8.5 0  18 8.5 0  18.5 8.5 0  19 8.5 0  19.5 8.5 0  20 8.5 0  0 9 0  0.5 9 0  1 9 0  1.5 9 0  2 9 0  2.5 9 0  3 9 0  3.5 9 0  4 9 0  4.5 9 0  5 9 0  5.5 9 0  6 9 0  6.5 9 0  7 9 0  7.5 9 0  8 9 0  8.5 9 0  9 9 0  9.5 9 0  10 9 0  10.5 9 0  11 9 0  11.5 9 0  12 9 0  12.5 9 0  13 9 0  13.5 9 0  14 9 0  14.5 9 0  15 9 0  15.5 9 0  16 9 0  16.5 9 0  17 9 0  17.5 9 0  18 9 0  18.5 9 0  19 9 0  19.5 9 0  20 9 0  0 9.5 0  0.5 9.5 0  1 9.5 0  1.5 9.5 0  2 9.5 0  2.5 9.5 0  3 9.5 0  3.5 9.5 0  4 9.5 0  4.5 9.5 0  5 9.5 0  5.5 9.5 0  6 9.5 0  6.5 9.5 0  7 9.5 0  7.5 9.5 0  8 9.5 0  8.5 9.5 0  9 9.5 0  9.5 9.5 0  10 9.5 0  10.5 9.5 0  11 9.5 0  11.5 9.5 0  12 9.5 0  12.5 9.5 0  13 9.5 0  13.5 9.5 0  14 9.5 0  14.5 9.5 0  15 9.5 0  15.5 9.5 0  16 9.5 0  16.5 9.5 0  17 9.5 0  17.5 9.5 0  18 9.5 0  18.5 9.5 0  19 9.5 0  19.5 9.5 0  20 9.5 0  0 10 0  0.5 10 0  1 10 0  1.5 10 0  2 10 0  2.5 10 0  3 10 0  3.5 10 0  4 10 0  4.5 10 0  5 10 0  5.5 10 0  6 10 0  6.5 10 0  7 10 0  7.5 10 0  8 10 0  8.5 10 0  9 10 0  9.5 10 0  10 10 0  10.5 10 0  11 10 0  11.5 10 0  12 10 0  12.5 10 0  13 10 0  13.5 10 0  14 10 0  14.5 10 0  15 10 0  15.5 10 0  16 10 0  16.5 10 0  17 10 0  17.5 10 0  18 10 0  18.5 10 0  19 10 0  19.5 10 0  20 10 0  0 10.5 0  0.5 10.5 0  1 10.5 0  1.5 10.5 0  2 10.5 0  2.5 10.5 0  3 10.5 0  3.5 10.5 0  4 10.5 0  4.5 10.5 0  5 10.5 0  5.5 10.5 0  6 10.5 0  6.5 10.5 0  7 10.5 0  7.5 10.5 0  8 10.5 0  8.5 10.5 0  9 10.5 0  9.5 10.5 0  10 10.5 0  10.5 10.5 0  11 10.5 0  11.5 10.5 0  12 10.5 0  12.5 10.5 0  13 10.5 0  13.5 10.5 0  14 10.5 0  14.5 10.5 0  15 10.5 0  15.5 10.5 0  16 10.5 0  16.5 10.5 0  17 10.5 0  17.5 10.5 0  18 10.5 0  18.5 10.5 0  19 10.5 0  19.5 10.5 0  20 10.5 0  0 11 0  0.5 11 0  1 11 0  1.5 11 0  2 11 0  2.5 11 0  3 11 0  3.5 11 0  4 11 0  4.5 11 0  5 11 0  5.5 11 0  6 11 0  6.5 11 0  7 11 0  7.5 11 0  8 11 0  8.5 11 0  9 11 0  9.5 11 0  10 11 0  10.5 11 0  11 11 0  11.5 11 0  12 11 0  12.5 11 0  13 11 0  13.5 11 0  14 11 0  14.5 11 0  15 11 0  15.5 11 0  16 11 0  16.5 11 0  17 11 0  17.5 11 0  18 11 0  18.5 11 0  19 11 0  19.5 11 0  20 11 0  0 11.5 0  0.5 11.5 0  1 11.5 0  1.5 11.5 0  2 11.5 0  2.5 11.5 0  3 11.5 0  3.5 11.5 0  4 11.5 0  4.5 11.5 0  5 11.5 0  5.5 11.5 0  6 11.5 0  6.5 11.5 0  7 11.5 0  7.5 11.5 0  8 11.5 0  8.5 11.5 0  9 11.5 0  9.5 11.5 0  10 11.5 0  10.5 11.5 0  11 11.5 0  11.5 11.5 0  12 11.5 0  12.5 11.5 0  13 11.5 0  13.5 11.5 0  14 11.5 0  14.5 11.5 0  15 11.5 0  15.5 11.5 0  16 11.5 0  16.5 11.5 0  17 11.5 0  17.5 11.5 0  18 11.5 0  18.5 11.5 0  19 11.5 0  19.5 11.5 0  20 11.5 0  0 12 0  0.5 12 0  1 12 0  1.5 12 0  2 12 0  2.5 12 0  3 12 0  3.5 12 0  4 12 0  4.5 12 0  5 12 0  5.5 12 0  6 12 0  6.5 12 0  7 12 0  7.5 12 0  8 12 0  8.5 12 0  9 12 0  9.5 12 0  10 12 0  10.5 12 0  11 12 0  11.5 12 0  12 12 0  12.5 12 0  13 12 0  13.5 12 0  14 12 0  14.5 12 0  
[...]
<PointData  Vectors="f_2975-0"> 
<DataArray  type="Float64"  Name="f_2975-0"  NumberOfComponents="3" format="ascii">0.0000000000000000e+00 0.0000000000000000e+00 0.0000000000000000e+00  -1.0031840941179837e-06 0.0000000000000000e+00 0.0000000000000000e+00  -6.5211861113739511e-06 0.0000000000000000e+00 0.0000000000000000e+00  -2.3261380805240507e-05 0.0000000000000000e+00 0.0000000000000000e+00  -5.6810057303069536e-05 0.0000000000000000e+00 0.0000000000000000e+00  -1.1256394028150545e-04 0.0000000000000000e+00 0.0000000000000000e+00  -1.9575258755313155e-04 0.0000000000000000e+00 0.0000000000000000e+00  -3.1138496412348320e-04 0.0000000000000000e+00 0.0000000000000000e+00  -4.6418361297595988e-04 0.0000000000000000e+00 0.0000000000000000e+00  -6.5850725202912935e-04 0.0000000000000000e+00 0.0000000000000000e+00  -8.9825820483659092e-04 0.0000000000000000e+00 0.0000000000000000e+00  -1.1867705891912181e-03 0.0000000000000000e+00 0.0000000000000000e+00  -1.5266746133417298e-03 0.0000000000000000e+00 0.0000000000000000e+00  -1.9197315508445347e-03 0.0000000000000000e+00 0.0000000000000000e+00  -2.3666330511665145e-03 0.0000000000000000e+00 0.0000000000000000e+00  -2.8667574285378269e-03 0.0000000000000000e+00 0.0000000000000000e+00  -3.4178744763465837e-03 0.0000000000000000e+00 0.0000000000000000e+00  -4.0157892009989983e-03 0.0000000000000000e+00 0.0000000000000000e+00  -4.6539136814685933e-03 0.0000000000000000e+00 0.0000000000000000e+00  -5.3227550627654111e-03 0.0000000000000000e+00 0.0000000000000000e+00  -6.0093065013417379e-03 0.0000000000000000e+00 0.0000000000000000e+00  -6.6963266997737258e-03 0.0000000000000000e+00 0.0000000000000000e+00  -7.3614924705240510e-03 0.0000000000000000e+00 0.0000000000000000e+00  -7.9764074824323194e-03 0.0000000000000000e+00 0.0000000000000000e+00  -8.5054488299044131e-03 0.0000000000000000e+00 0.0000000000000000e+00  -8.9044310928924914e-03 0.0000000000000000e+00 0.0000000000000000e+00  -9.1190647728111654e-03 0.0000000000000000e+00 0.0000000000000000e+00  -9.0831818836845171e-03 0.0000000000000000e+00 0.0000000000000000e+00  -8.7166953306518705e-03 0.0000000000000000e+00 0.0000000000000000e+00  -7.9232495323620037e-03 0.0000000000000000e+00 0.0000000000000000e+00  -6.5875061816306453e-03 0.0000000000000000e+00 0.0000000000000000e+00  -4.5719892030640988e-03 0.0000000000000000e+00 0.0000000000000000e+00  -1.7133841565739442e-03 0.0000000000000000e+00 0.0000000000000000e+00  2.1818544644174051e-03 0.0000000000000000e+00 0.0000000000000000e+00  7.3427956773397503e-03 0.0000000000000000e+00 0.0000000000000000e+00  1.4040522816041141e-02 0.0000000000000000e+00 0.0000000000000000e+00  2.2596262392574007e-02 0.0000000000000000e+00 0.0000000000000000e+00  3.3391830220369276e-02 0.0000000000000000e+00 0.0000000000000000e+00  4.6883580134640501e-02 0.0000000000000000e+00 0.0000000000000000e+00  6.3622658318148229e-02 0.0000000000000000e+00 0.0000000000000000e+00  8.4290795596051835e-02 0.0000000000000000e+00 0.0000000000000000e+00  0.0000000000000000e+00 -1.0031840961771238e-06 0.0000000000000000e+00  2.8820333827131749e-06 2.8820333835374680e-06 0.0000000000000000e+00  -7.4190755699206868e-08 1.2060852754915853e-05 0.0000000000000000e+00  -1.4094655650403899e-05 2.6602035777270127e-05 0.0000000000000000e+00  -4.4821940070119496e-05 4.6677990984447714e-05 0.0000000000000000e+00  -9.7716456556335758e-05 7.2301969811263452e-05 0.0000000000000000e+00  -1.7803450239880174e-04 1.0339725745872346e-04 0.0000000000000000e+00  -2.9079722754400065e-04 1.3983692702676818e-04 0.0000000000000000e+00  -4.4073477371962306e-04 1.8145727102821937e-04 0.0000000000000000e+00  -6.3221248065728106e-04 2.2806089064598999e-04 0.0000000000000000e+00  -8.6913969690537445e-04 2.7941619796993216e-04 0.0000000000000000e+00  -1.1548585677618925e-03 3.3525566037213400e-04 0.0000000000000000e+00  -1.4920086262000345e-03 3.9527358260616489e-04 0.0000000000000000e+00  -1.8823619196581102e-03 4.5912373705607392e-04 0.0000000000000000e+00  -2.3266223881119835e-03 5.2641700518339511e-04 0.0000000000000000e+00  -2.8241821563639142e-03 5.9671915120459865e-04 0.0000000000000000e+00  -3.3728262935281616e-03 6.6954884113777050e-04 0.0000000000000000e+00  -3.9683764324615674e-03 7.4437602421955176e-04 0.0000000000000000e+00  -4.6042624509050126e-03 8.2062080058557948e-04 0.0000000000000000e+00  -5.2710102167961822e-03 8.9765290652418848e-04 0.0000000000000000e+00  -5.9556322091484683e-03 9.7479195416670466e-04 0.0000000000000000e+00  -6.6409066452658150e-03 1.0513085650242979e-03 0.0000000000000000e+00  -7.3045295479315505e-03 1.1264265350491901e-03 0.0000000000000000e+00  -7.9181229006265244e-03 1.1993261616926084e-03 0.0000000000000000e+00  -8.4460805257072901e-03 1.2691488486649566e-03 0.0000000000000000e+00  -8.8442313491539602e-03 1.3350030810659642e-03 0.0000000000000000e+00  -9.0582969319333642e-03 1.3959718295671433e-03 0.0000000000000000e+00  -9.0221160390185715e-03 1.4511213955077042e-03 0.0000000000000000e+00  -8.6556028627638951e-03 1.4995116474891431e-03 0.0000000000000000e+00  -7.8623963269305944e-03 1.5402075228104052e-03 0.0000000000000000e+00  -6.5271443120783930e-03 1.5722915746154127e-03 0.0000000000000000e+00  -4.5123467795334590e-03 1.5948772402323036e-03 0.0000000000000000e+00  -1.6546529572234205e-03 1.6071223884937761e-03 0.0000000000000000e+00  2.2395339277741727e-03 1.6082425612508556e-03 0.0000000000000000e+00  7.3993513763429934e-03 1.5975231087324289e-03 0.0000000000000000e+00  1.4095967475362152e-02 1.5743290630583046e-03 0.0000000000000000e+00  2.2650693577813512e-02 1.5381113992343450e-03 0.0000000000000000e+00  3.3445347524921822e-02 1.4884110898227051e-03 0.0000000000000000e+00  4.6935794858422086e-02 1.4248813611471983e-03 0.0000000000000000e+00  6.3669916208395433e-02 1.3474269369814760e-03 0.0000000000000000e+00  8.4310093755996102e-02 1.2566974802033506e-03 0.0000000000000000e+00  0.0000000000000000e+00 -6.5211861180432590e-06 0.0000000000000000e+00  1.2060852757904035e-05 -7.4190752837371934e-08 0.0000000000000000e+00  1.7821256691034142e-05 1.7821256689733770e-05 0.0000000000000000e+00  1.2383845643074230e-05 4.6945617748054132e-05 0.0000000000000000e+00  -9.7648325290604831e-06 8.7249014789634094e-05 0.0000000000000000e+00  -5.4061893128310637e-05 1.3863146387377916e-04 0.0000000000000000e+00  -1.2577246174340771e-04 2.0092222312625415e-04 0.0000000000000000e+00  -2.2993248908571032e-04 2.7387710626903432e-04 0.0000000000000000e+00  -3.7128805448913136e-04 3.5718087148966723e-04 0.0000000000000000e+00  -5.5422180210172828e-04 4.5044854018174107e-04 0.0000000000000000e+00  -7.8266272556983343e-04 5.5322444176877125e-04 0.0000000000000000e+00  -1.0599757893251108e-03 6.6497948504661551e-04 0.0000000000000000e+00  -1.3888271043312982e-03 7.8510735018886191e-04 0.0000000000000000e+00  -1.7710194241606773e-03 9.1292013885072270e-04 0.0000000000000000e+00  -2.2072917135765504e-03 1.0476438713926835e-03 0.0000000000000000e+00  -2.6970754716935334e-03 1.1884141355622717e-03 0.0000000000000000e+00  -3.2381993671049816e-03 1.3342721544621434e-03 0.0000000000000000e+00  -3.8265325728584578e-03 1.4841615331537567e-03 0.0000000000000000e+00  -4.4555559934322834e-03 1.6369259478687256e-03 0.0000000000000000e+00  -5.1158493746415110e-03 1.7913080514272122e-03 0.0000000000000000e+00  -5.7944810968375837e-03 1.9459498774199164e-03 0.0000000000000000e+00  -6.4742862733893521e-03 2.0993950302075261e-03 0.0000000000000000e+00  -7.1330175829935694e-03 2.2500929450752433e-03 0.0000000000000000e+00  -7.7423519841925657e-03 2.3964054891982404e-03 0.0000000000000000e+00  -8.2667349537748000e-03 2.5366161471732352e-03 0.0000000000000000e+00  -8.6620419273926996e-03 2.6689419912662117e-03 0.0000000000000000e+00  -8.8740338456575509e-03 2.7915485734211487e-03 0.0000000000000000e+00  -8.8365796093161312e-03 2.9025677897702093e-03 0.0000000000000000e+00  -8.4696121024852716e-03 3.0001186573502055e-03 0.0000000000000000e+00  -7.6767752636461486e-03 3.0823308043243089e-03 0.0000000000000000e+00  -6.3427061175637079e-03 3.1473703095076032e-03 0.0000000000000000e+00  -4.3298758620254844e-03 3.1934673342354130e-03 0.0000000000000000e+00  -1.4748854111927185e-03 3.2189447660600462e-03 0.0000000000000000e+00  2.4159305532175357e-03 3.2222468268557716e-03 0.0000000000000000e+00  7.5717966119061824e-03 3.2019662584989810e-03 0.0000000000000000e+00  1.4263978858876786e-02 3.1568682377709849e-03 0.0000000000000000e+00  2.2813875479923442e-02 3.0859083177093688e-03 0.0000000000000000e+00  3.3603323355626075e-02 2.9882380431986533e-03 0.0000000000000000e+00  4.7088008176084564e-02 2.8631692751162549e-03 0.0000000000000000e+00  6.3815251552076818e-02 2.7099416263396355e-03 0.0000000000000000e+00  8.4447970394610231e-02 2.5265090191786701e-03 0.0000000000000000e+00  0.0000000000000000e+00 -2.3261380812108562e-05 0.0000000000000000e+00  2.6602035781928798e-05 -1.4094655648609472e-05 0.0000000000000000e+00  4.6945617751172792e-05 1.2383845638502239e-05 0.0000000000000000e+00  5.5933465041267283e-05 5.5933465033358502e-05 0.0000000000000000e+00  4.8158977705828673e-05 1.1637864797172673e-04 0.0000000000000000e+00  1.8218086349080871e-05 1.9350565652941773e-04 0.0000000000000000e+00  -3.9148366242174241e-05 2.8702183362042973e-04 0.0000000000000000e+00  -1.2898429644459111e-04 3.9654630336072826e-04 0.0000000000000000e+00  -2.5605249728609224e-04 5.2160496275321434e-04 0.0000000000000000e+00  -4.2475908155287641e-04 6.6162567350090673e-04 0.0000000000000000e+00  -6.3906280741494125e-04 8.1593302831078028e-04 0.0000000000000000e+00  -9.0236486681334670e-04 9.8374249768873193e-04 0.0000000000000000e+00  -1.2173744084470076e-03 1.1641539998659130e-03 0.0000000000000000e+00  -1.5859443527844986e-03 1.3561450992872165e-03 0.0000000000000000e+00  -2.0088711517454007e-03 1.5585641242776918e-03 0.0000000000000000e+00  -2.4856511224711562e-03 1.7701235353030781e-03 0.0000000000000000e+00  -3.0141848781691438e-03 1.9893938983226800e-03 0.0000000000000000e+00  -3.5904202164347364e-03 2.2147988378385629e-03 0.0000000000000000e+00  -4.2079226320695471e-03 2.4446113645997499e-03 0.0000000000000000e+00  -4.8573614225898261e-03 2.6769519928061887e-03 0.0000000000000000e+00  -5.5258981673214601e-03 2.9097890779296370e-03 0.0000000000000000e+00  -6.1964631876531978e-03 3.1409418153819967e-03 0.0000000000000000e+00  -6.8469044101018084e-03 3.3680863379330806e-03 0.0000000000000000e+00  -7.4489917831590336e-03 3.5887653320994554e-03 0.0000000000000000e+00  -7.9672589047687786e-03 3.8004015555562400e-03 0.0000000000000000e+00  -8.3576615682910225e-03 4.0003155751940156e-03 0.0000000000000000e+00  -8.5660301769912902e-03 4.1857479529665200e-03 0.0000000000000000e+00  -8.5262888963656951e-03 4.3538859795782805e-03 0.0000000000000000e+00  -8.1584082900778999e-03 4.5018948897045533e-03 0.0000000000000000e+00  -7.3660490304237611e-03 4.6269532808757138e-03 0.0000000000000000e+00  -6.0338407394003955e-03 4.7262921962881481e-03 0.0000000000000000e+00  -4.0242202498982924e-03 4.7972370085158974e-03 0.0000000000000000e+00  -1.1737249869684498e-03 4.8372508342563085e-03 0.0000000000000000e+00  2.7114039702987409e-03 4.8439776574385517e-03 0.0000000000000000e+00  7.8605138104459946e-03 4.8152824629118900e-03 0.0000000000000000e+00  1.4545017342277498e-02 4.7492839321226074e-03 0.0000000000000000e+00  2.3086471764624385e-02 4.6443708139036763e-03 0.0000000000000000e+00  3.3866860198272064e-02 4.4991801942253183e-03 0.0000000000000000e+00  4.7341948569720453e-02 4.3124787899172018e-03 0.0000000000000000e+00  6.4058964731875764e-02 4.0827980496545456e-03 0.0000000000000000e+00  8.4680330409366400e-02 3.8075427440775918e-03 0.0000000000000000e+00  0.0000000000000000e+00 -5.6810057312634720e-05 0.0000000000000000e+00  4.6677990978840078e-05 -4.4821940073548801e-05 0.0000000000000000e+00  8.7249014791241316e-05 -9.7648325297319633e-06 0.0000000000000000e+00  1.1637864797404602e-04 4.8158977700282051e-05 0.0000000000000000e+00  1.2869602867542066e-04 1.2869602867550978e-04 0.0000000000000000e+00  1.1882188677426664e-04 2.3153596161588536e-04 0.0000000000000000e+00  8.1501221992988761e-05 3.5627376085526317e-04 0.0000000000000000e+00  1.1680975398499766e-05 5.0239561337800766e-04 0.0000000000000000e+00  -9.5421076137740745e-05 6.6927030001992277e-04 0.0000000000000000e+00  -2.4423999228344973e-04 8.5614122943284006e-04 0.0000000000000000e+00  -4.3877297153846923e-04 1.0621179755101410e-03 0.0000000000000000e+00  -6.8246939857884484e-04 1.2861672104635400e-03 0.0000000000000000e+00  -9.7809671163252344e-04 1.5271031761532211e-03 0.0000000000000000e+00  -1.3275765229746413e-03 1.7835779226638034e-03 0.0000000000000000e+00  -1.7317845531850829e-03 2.0540716071214189e-03 0.0000000000000000e+00  -2.1903069367105185e-03 2.3368832071751313e-03 0.0000000000000000e+00  -2.7011443630017818e-03 2.6301220599479970e-03 0.0000000000000000e+00  -3.2603543632336277e-03 2.9317006881390316e-03 0.0000000000000000e+00  -3.8616208656499047e-03 3.2393294203079872e-03 0.0000000000000000e+00  -4.4957389492251611e-03 3.5505133514631745e-03 0.0000000000000000e+00  -5.1500015445356878e-03 3.8625522200708799e-03 0.0000000000000000e+00  -5.8074736656254589e-03 4.1725437968743060e-03 0.0000000000000000e+00  -6.4461385821061000e-03 4.4773913829071303e-03 0.0000000000000000e+00  -7.0378990841705857e-03 4.7738159957764429e-03 0.0000000000000000e+00  -7.5474155171546906e-03 5.0583737769739779e-03 0.0000000000000000e+00  -7.9307603350840146e-03 5.3274790734877137e-03 0.0000000000000000e+00  -8.1338661904912825e-03 5.5774335263149896e-03 0.0000000000000000e+00  -8.0907405264429837e-03 5.8044613297905919e-03 0.0000000000000000e+00  -7.7214135463310471e-03 6.0047505999372948e-03 0.0000000000000000e+00  -6.9295773192500189e-03 6.1745004978559928e-03 0.0000000000000000e+00  -5.5998602882371086e-03 6.3099733819825489e-03 0.0000000000000000e+00  -3.5946617415724123e-03 6.4075507879393905e-03 0.0000000000000000e+00  -7.5044231333781179e-04 6.4637914112929415e-03 0.0000000000000000e+00  3.1266743818844441e-03 6.4754883856039287e-03 0.0000000000000000e+00  8.2661927341340334e-03 6.4397217318862476e-03 0.0000000000000000e+00  1.4939717449577823e-02 6.3538992315474606e-03 0.0000000000000000e+00  2.3469019359045371e-02 6.2157736480244734e-03 0.0000000000000000e+00  3.4236287033253640e-02 6.0234136662930711e-03 0.0000000000000000e+00  4.7697417506897787e-02 5.7750895261280133e-03 0.0000000000000000e+00  6.4399571096341646e-02 5.4690308419058408e-03 0.0000000000000000e+00  8.5004757614249901e-02 5.1031219544054136e-03 0.0000000000000000e+00  0.0000000000000000e+00 -1.1256394028337293e-04 0.0000000000000000e+00  7.2301969811865076e-05 -9.7716456561273052e-05 0.0000000000000000e+00  1.3863146387843619e-04 -5.4061893135448252e-05 0.0000000000000000e+00  1.9350565653536051e-04 1.8218086343811564e-05 0.0000000000000000e+00  2.3153596161994410e-04 1.1882188677495461e-04 0.0000000000000000e+00  2.4735651046380708e-04 2.4735651046035851e-04 0.0000000000000000e+00  2.3571348984216458e-04 4.0331471761726590e-04 0.0000000000000000e+00  1.9154217760268490e-04 5.8605884654387523e-04 0.0000000000000000e+00  1.1003700658173427e-04 7.9480931686066005e-04 0.0000000000000000e+00  -1.3271952645929643e-05 1.0286339008377999e-03 0.0000000000000000e+00  -1.8242873366845322e-04 1.2864364835338817e-03 0.0000000000000000e+00  -4.0094214830028069e-04 1.5669450922093813e-03 0.0000000000000000e+00  -6.7165226057246141e-04 1.8686993399289603e-03 0.0000000000000000e+00  -9.9656698528903433e-04 2.1900375712575063e-03 0.0000000000000000e+00  -1.3766622970609256e-03 2.5290840767940833e-03 0.0000000000000000e+00  -1.8116385425668094e-03 2.8837368079274264e-03 0.0000000000000000e+00  -2.2996242582556743e-03 3.2516560874602208e-03 0.0000000000000000e+00  -2.8368177435773578e-03 3.6302548750867065e-03 0.0000000000000000e+00  -3.4170554557291246e-03 4.0166912087592392e-03 0.0000000000000000e+00  -4.0312951030398612e-03 4.4078634985655705e-03 0.0000000000000000e+00  -4.6670001404086970e-03 4.8004093955501597e-03 0.0000000000000000e+00  -5.3074112155741641e-03 5.1907089899392526e-03 0.0000000000000000e+00  -5.9306889542099792e-03 5.5748931042004877e-03 0.0000000000000000e+00  -6.5089112340697194e-03 5.9488574313832704e-03 0.0000000000000000e+00  -7.0069066460409016e-03 6.3082832194827155e-03 0.0000000000000000e+00  -7.3809039419566302e-03 6.6486651101573258e-03 0.0000000000000000e+00  -7.5769745719002938e-03 6.9653465955447939e-03 0.0000000000000000e+00  -7.5292414035864532e-03 7.2535633499960679e-03 0.0000000000000000e+00  -7.1578206731647128e-03 7.5084944116532255e-03 0.0000000000000000e+00  -6.3664551529362878e-03 7.7253208192096514e-03 0.0000000000000000e+00  -5.0397830937535812e-03 7.8992908317647766e-03 0.0000000000000000e+00  -3.0401678723470148e-03 8.0257902466892347e-03 0.0000000000000000e+00  -2.0398489950334645e-04 8.1004155309633893e-03 0.0000000000000000e+00  3.6627784004764196e-03 8.1190463954099439e-03 0.0000000000000000e+00  8.7898121465902444e-03 8.0779128734621928e-03 0.0000000000000000e+00  1.5448949735060193e-02 7.9736495907400413e-03 0.0000000000000000e+00  2.3962218111034835e-02 7.8033264426348144e-03 0.0000000000000000e+00  3.4712058859812038e-02 7.5644411877902554e-03 0.0000000000000000e+00  4.8154569943029073e-02 7.2548613918076189e-03 0.0000000000000000e+00  6.4837020570333942e-02 6.8727307149679864e-03 0.0000000000000000e+00  8.5421554446372588e-02 6.4164510752915231e-03 0.0000000000000000e+00  0.0000000000000000e+00 -1.9575258755922159e-04 0.0000000000000000e+00  1.0339725746019802e-04 -1.7803450240456910e-04 0.0000000000000000e+00  2.0092222312639868e-04 -1.2577246174834902e-04 0.0000000000000000e+00  2.8702183361647152e-04 -3.9148366243969917e-05 0.0000000000000000e+00  3.5627376084924780e-04 8.1501221989181138e-05 0.0000000000000000e+00  4.0331471761370267e-04 2.3571348984123729e-04 0.0000000000000000e+00  4.2288937241046729e-04 4.2288937241267895e-04 0.0000000000000000e+00  4.0991961200723175e-04 6.4227786619213464e-04 0.0000000000000000e+00  3.5957352466670762e-04 8.9296231532427685e-04 0.0000000000000000e+00  2.6734126312903716e-04 1.1738470384186331e-03 0.0000000000000000e+00  1.2912445229713257e-04 1.4836433040543065e-03 0.0000000000000000e+00  -5.8655431607133924e-05 1.8208544199556798e-03 0.0000000000000000e+00  -2.9892442062234940e-04 2.1837600724214879e-03 0.0000000000000000e+00  -5.9379336523256773e-04 2.5704002315839456e-03 0.0000000000000000e+00  -9.4435859631464660e-04 2.9785590451019950e-03 0.0000000000000000e+00  -1.3504583577795975e-03 3.4057492273308898e-03 0.0000000000000000e+00  -1.8103763416077970e-03 3.8491975301355769e-03 0.0000000000000000e+00  -2.3204825050408022e-03 4.3058319595081608e-03 0.0000000000000000e+00  -2.8748001667190199e-03 4.7722714791739963e-03 0.0000000000000000e+00  -3.4644871926875162e-03 5.2448190143330239e-03 0.0000000000000000e+00  -4.0772179162292220e-03 5.7194586309084116e-03 0.0000000000000000e+00  -4.6964512916609566e-03 6.1918578130066007e-03 0.0000000000000000e+00  -5.3005696375151333e-03 6.6573757850292431e-03 0.0000000000000000e+00  -5.8618711089728935e-03 7.1110788185461101e-03 0.0000000000000000e+00  -6.3453976158892849e-03 7.5477634164773637e-03 0.0000000000000000e+00  -6.7075780410940991e-03 7.9619881689041386e-03 0.0000000000000000e+00  -6.8946639614322191e-03 8.3481149134063508e-03 0.0000000000000000e+00  -6.8409311169340906e-03 8.7003595957432338e-03 0.0000000000000000e+00  -6.4666138927581543e-03 9.0128528985765431e-03 0.0000000000000000e+00  -5.6755310864203658e-03 9.2797102713630484e-03 0.0000000000000000e+00  -4.3523478874499099e-03 9.4951104325349134e-03 0.0000000000000000e+00  -2.3593994676263342e-03 9.6533807013857737e-03 0.0000000000000000e+00  4.6702666379739893e-04 9.7490866196846566e-03 0.0000000000000000e+00  4.3210929316313028e-03 9.7771222013205965e-03 0.0000000000000000e+00  9.4327000763129599e-03 9.7327957707370738e-03 0.0000000000000000e+00  1.60739466