<?xml version="1.0"?>
<VTKFile type="UnstructuredGrid"  version="0.1"  >
<UnstructuredGrid>
<Piece  NumberOfPoints="1681" NumberOfCells="3200">
<Points>
<DataArray  type="Float64"  NumberOfComponents="3"  format="ascii">0 0 0  0.5 0 0  1 0 0  1.5 0 0  2 0 0  2.5 0 0  3 0 0  3.5 0 0  4 0 0  4.5 0 0  5 0 0  5.5 0 0  6 0 0  6.5 0 0  7 0 0  7.5 0 0  8 0 0  8.5 0 0  9 0 0  9.5 0 0  10 0 0  10.5 0 0  11 0 0  11.5 0 0  12 0 0  12.5 0 0  13 0 0  13.5 0 0  14 0 0  14.5 0 0  15 0 0  15.5 0 0  16 0 0  16.5 0 0  17 0 0  17.5 0 0  18 0 0  18.5 0 0  19 0 0  19.5 0 0  20 0 0  0 0.5 0  0.5 0.5 0  1 0.5 0  1.5 0.5 0  2 0.5 0  2.5 0.5 0  3 0.5 0  3.5 0.5 0  4 0.5 0  4.5 0.5 0  5 0.5 0  5.5 0.5 0  6 0.5 0  6.5 0.5 0  7 0.5 0  7.5 0.5 0  8 0.5 0  8.5 0.5 0  9 0.5 0  9.5 0.5 0  10 0.5 0  10.5 0.5 0  11 0.5 0  11.5 0.5 0  12 0.5 0  12.5 0.5 0  13 0.5 0  13.5 0.5 0  14 0.5 0  14.5 0.5 0  15 0.5 0  15.5 0.5 0  16 0.5 0  16.5 0.5 0  17 0.5 0  17.5 0.5 0  18 0.5 0  18.5 0.5 0  19 0.5 0  19.5 0.5 0  20 0.5 0  0 1 0  0.5 1 0  1 1 0  1.5 1 0  2 1 0  2.5 1 0  3 1 0  3.5 1 0  4 1 0  4.5 1 0  5 1 0  5.5 1 0  6 1 0  6.5 1 0  7 1 0  7.5 1 0  8 1 0  8.5 1 0  9 1 0  9.5 1 0  10 1 0  10.5 1 0  11 1 0  11.5 1 0  12 1 0  12.5 1 0  13 1 0  13.5 1 0  14 1 0  14.5 1 0  15 1 0  15.5 1 0  16 1 0  16.5 1 0  17 1 0  17.5 1 0  18 1 0  18.5 1 0  19 1 0  19.5 1 0  20 1 0  0 1.5 0  0.5 1.5 0  1 1.5 0  1.5 1.5 0  2 1.5 0  2.5 1.5 0  3 1.5 0  3.5 1.5 0  4 1.5 0  4.5 1.5 0  5 1.5 0  5.5 1.5 0  6 1.5 0  6.5 1.5 0  7 1.5 0  7.5 1.5 0  8 1.5 0  8.5 1.5 0  9 1.5 0  9.5 1.5 0  10 1.5 0  10.5 1.5 0  11 1.5 0  11.5 1.5 0  12 1.5 0  12.5 1.5 0  13 1.5 0  13.5 1.5 0  14 1.5 0  14.5 1.5 0  15 1.5 0  15.5 1.5 0  16 1.5 0  16.5 1.5 0  17 1.5 0  17.5 1.5 0  18 1.5 0  18.5 1.5 0  19 1.5 0  19.5 1.5 0  20 1.5 0  0 2 0  0.5 2 0  1 2 0  1.5 2 0  2 2 0  2.5 2 0  3 2 0  3.5 2 0  4 2 0  4.5 2 0  5 2 0  5.5 2 0  6 2 0  6.5 2 0  7 2 0  7.5 2 0  8 2 0  8.5 2 0  9 2 0  9.5 2 0  10 2 0  10.5 2 0  11 2 0  11.5 2 0  12 2 0  12.5 2 0  13 2 0  13.5 2 0  14 2 0  14.5 2 0  15 2 0  15.5 2 0  16 2 0  16.5 2 0  17 2 0  17.5 2 0  18 2 0  18.5 2 0  19 2 0  19.5 2 0  20 2 0  0 2.5 0  0.5 2.5 0  1 2.5 0  1.5 2.5 0  2 2.5 0  2.5 2.5 0  3 2.5 0  3.5 2.5 0  4 2.5 0  4.5 2.5 0  5 2.5 0  5.5 2.5 0  6 2.5 0  6.5 2.5 0  7 2.5 0  7.5 2.5 0  8 2.5 0  8.5 2.5 0  9 2.5 0  9.5 2.5 0  10 2.5 0  10.5 2.5 0  11 2.5 0  11.5 2.5 0  12 2.5 0  12.5 2.5 0  13 2.5 0  13.5 2.5 0  14 2.5 0  14.5 2.5 0  15 2.5 0  15.5 2.5 0  16 2.5 0  16.5 2.5 0  17 2.5 0  17.5 2.5 0  18 2.5 0  18.5 2.5 0  19 2.5 0  19.5 2.5 0  20 2.5 0  0 3 0  0.5 3 0  1 3 0  1.5 3 0  2 3 0  2.5 3 0  3 3 0  3.5 3 0  4 3 0  4.5 3 0  5 3 0  5.5 3 0  6 3 0  6.5 3 0  7 3 0  7.5 3 0  8 3 0  8.5 3 0  9 3 0  9.5 3 0  10 3 0  10.5 3 0  11 3 0  11.5 3 0  12 3 0  12.5 3 0  13 3 0  13.5 3 0  14 3 0  14.5 3 0  15 3 0  15.5 3 0  16 3 0  16.5 3 0  17 3 0  17.5 3 0  18 3 0  18.5 3 0  19 3 0  19.5 3 0  20 3 0  0 3.5 0  0.5 3.5 0  1 3.5 0  1.5 3.5 0  2 3.5 0  2.5 3.5 0  3 3.5 0  3.5 3.5 0  4 3.5 0  4.5 3.5 0  5 3.5 0  5.5 3.5 0  6 3.5 0  6.5 3.5 0  7 3.5 0  7.5 3.5 0  8 3.5 0  8.5 3.5 0  9 3.5 0  9.5 3.5 0  10 3.5 0  10.5 3.5 0  11 3.5 0  11.5 3.5 0  12 3.5 0  12.5 3.5 0  13 3.5 0  13.5 3.5 0  14 3.5 0  14.5 3.5 0  15 3.5 0  15.5 3.5 0  16 3.5 0  16.5 3.5 0  17 3.5 0  17.5 3.5 0  18 3.5 0  18.5 3.5 0  19 3.5 0  19.5 3.5 0  20 3.5 0  0 4 0  0.5 4 0  1 4 0  1.5 4 0  2 4 0  2.5 4 0  3 4 0  3.5 4 0  4 4 0  4.5 4 0  5 4 0  5.5 4 0  6 4 0  6.5 4 0  7 4 0  7.5 4 0  8 4 0  8.5 4 0  9 4 0  9.5 4 0  10 4 0  10.5 4 0  11 4 0  11.5 4 0  12 4 0  12.5 4 0  13 4 0  13.5 4 0  14 4 0  14.5 4 0  15 4 0  15.5 4 0  16 4 0  16.5 4 0  17 4 0  17.5 4 0  18 4 0  18.5 4 0  19 4 0  19.5 4 0  20 4 0  0 4.5 0  0.5 4.5 0  1 4.5 0  1.5 4.5 0  2 4.5 0  2.5 4.5 0  3 4.5 0  3.5 4.5 0  4 4.5 0  4.5 4.5 0  5 4.5 0  5.5 4.5 0  6 4.5 0  6.5 4.5 0  7 4.5 0  7.5 4.5 0  8 4.5 0  8.5 4.5 0  9 4.5 0  9.5 4.5 0  10 4.5 0  10.5 4.5 0  11 4.5 0  11.5 4.5 0  12 4.5 0  12.5 4.5 0  13 4.5 0  13.5 4.5 0  14 4.5 0  14.5 4.5 0  15 4.5 0  15.5 4.5 0  16 4.5 0  16.5 4.5 0  17 4.5 0  17.5 4.5 0  18 4.5 0  18.5 4.5 0  19 4.5 0  19.5 4.5 0  20 4.5 0  0 5 0  0.5 5 0  1 5 0  1.5 5 0  2 5 0  2.5 5 0  3 5 0  3.5 5 0  4 5 0  4.5 5 0  5 5 0  5.5 5 0  6 5 0  6.5 5 0  7 5 0  7.5 5 0  8 5 0  8.5 5 0  9 5 0  9.5 5 0  10 5 0  10.5 5 0  11 5 0  11.5 5 0  12 5 0  12.5 5 0  13 5 0  13.5 5 0  14 5 0  14.5 5 0  15 5 0  15.5 5 0  16 5 0  16.5 5 0  17 5 0  17.5 5 0  18 5 0  18.5 5 0  19 5 0  19.5 5 0  20 5 0  0 5.5 0  0.5 5.5 0  1 5.5 0  1.5 5.5 0  2 5.5 0  2.5 5.5 0  3 5.5 0  3.5 5.5 0  4 5.5 0  4.5 5.5 0  5 5.5 0  5.5 5.5 0  6 5.5 0  6.5 5.5 0  7 5.5 0  7.5 5.5 0  8 5.5 0  8.5 5.5 0  9 5.5 0  9.5 5.5 0  10 5.5 0  10.5 5.5 0  11 5.5 0  11.5 5.5 0  12 5.5 0  12.5 5.5 0  13 5.5 0  13.5 5.5 0  14 5.5 0  14.5 5.5 0  15 5.5 0  15.5 5.5 0  16 5.5 0  16.5 5.5 0  17 5.5 0  17.5 5.5 0  18 5.5 0  18.5 5.5 0  19 5.5 0  19.5 5.5 0  20 5.5 0  0 6 0  0.5 6 0  1 6 0  1.5 6 0  2 6 0  2.5 6 0  3 6 0  3.5 6 0  4 6 0  4.5 6 0  5 6 0  5.5 6 0  6 6 0  6.5 6 0  7 6 0  7.5 6 0  8 6 0  8.5 6 0  9 6 0  9.5 6 0  10 6 0  10.5 6 0  11 6 0  11.5 6 0  12 6 0  12.5 6 0  13 6 0  13.5 6 0  14 6 0  14.5 6 0  15 6 0  15.5 6 0  16 6 0  16.5 6 0  17 6 0  17.5 6 0  18 6 0  18.5 6 0  19 6 0  19.5 6 0  20 6 0  0 6.5 0  0.5 6.5 0  1 6.5 0  1.5 6.5 0  2 6.5 0  2.5 6.5 0  3 6.5 0  3.5 6.5 0  4 6.5 0  4.5 6.5 0  5 6.5 0  5.5 6.5 0  6 6.5 0  6.5 6.5 0  7 6.5 0  7.5 6.5 0  8 6.5 0  8.5 6.5 0  9 6.5 0  9.5 6.5 0  10 6.5 0  10.5 6.5 0  11 6.5 0  11.5 6.5 0  12 6.5 0  12.5 6.5 0  13 6.5 0  13.5 6.5 0  14 6.5 0  14.5 6.5 0  15 6.5 0  15.5 6.5 0  16 6.5 0  16.5 6.5 0  17 6.5 0  17.5 6.5 0  18 6.5 0  18.5 6.5 0  19 6.5 0  19.5 6.5 0  20 6.5 0  0 7 0  0.5 7 0  1 7 0  1.5 7 0  2 7 0  2.5 7 0  3 7 0  3.5 7 0  4 7 0  4.5 7 0  5 7 0  5.5 7 0  6 7 0  6.5 7 0  7 7 0  7.5 7 0  8 7 0  8.5 7 0  9 7 0  9.5 7 0  10 7 0  10.5 7 0  11 7 0  11.5 7 0  12 7 0  12.5 7 0  13 7 0  13.5 7 0  14 7 0  14.5 7 0  15 7 0  15.5 7 0  16 7 0  16.5 7 0  17 7 0  17.5 7 0  18 7 0  18.5 7 0  19 7 0  19.5 7 0  20 7 0  0 7.5 0  0.5 7.5 0  1 7.5 0  1.5 7.5 0  2 7.5 0  2.5 7.5 0  3 7.5 0  3.5 7.5 0  4 7.5 0  4.5 7.5 0  5 7.5 0  5.5 7.5 0  6 7.5 0  6.5 7.5 0  7 7.5 0  7.5 7.5 0  8 7.5 0  8.5 7.5 0  9 7.5 0  9.5 7.5 0  10 7.5 0  10.5 7.5 0  11 7.5 0  11.5 7.5 0  12 7.5 0  12.5 7.5 0  13 7.5 0  13.5 7.5 0  14 7.5 0  14.5 7.5 0  15 7.5 0  15.5 7.5 0  16 7.5 0  16.5 7.5 0  17 7.5 0  17.5 7.5 0  18 7.5 0  18.5 7.5 0  19 7.5 0  19.5 7.5 0  20 7.5 0  0 8 0  0.5 8 0  1 8 0  1.5 8 0  2 8 0  2.5 8 0  3 8 0  3.5 8 0  4 8 0  4.5 8 0  5 8 0  5.5 8 0  6 8 0  6.5 8 0  7 8 0  7.5 8 0  8 8 0  8.5 8 0  9 8 0  9.5 8 0  10 8 0  10.5 8 0  11 8 0  11.5 8 0  12 8 0  12.5 8 0  13 8 0  13.5 8 0  14 8 0  14.5 8 0  15 8 0  15.5 8 0  16 8 0  16.5 8 0  17 8 0  17.5 8 0  18 8 0  18.5 8 0  19 8 0  19.5 8 0  20 8 0  0 8.5 0  0.5 8.5 0  1 8.5 0  1.5 8.5 0  2 8.5 0  2.5 8.5 0  3 8.5 0  3.5 8.5 0  4 8.5 0  4.5 8.5 0  5 8.5 0  5.5 8.5 0  6 8.5 0  6.5 8.5 0  7 8.5 0  7.5 8.5 0  8 8.5 0  8.5 8.5 0  9 8.5 0  9.5 8.5 0  10 8.5 0  10.5 8.5 0  11 8.5 0  11.5 8.5 0  12 8.5 0  12.5 8.5 0  13 8.5 0  13.5 8.5 0  14 8.5 0  14.5 8.5 0  15 8.5 0  15.5 8.5 0  16 8.5 0  16.5 8.5 0  17 8.5 0  17.5 8.5 0  18 8.5 0  18.5 8.5 0  19 8.5 0  19.5 8.5 0  20 8.5 0  0 9 0  0.5 9 0  1 9 0  1.5 9 0  2 9 0  2.5 9 0  3 9 0  3.5 9 0  4 9 0  4.5 9 0  5 9 0  5.5 9 0  6 9 0  6.5 9 0  7 9 0  7.5 9 0  8 9 0  8.5 9 0  9 9 0  9.5 9 0  10 9 0  10.5 9 0  11 9 0  11.5 9 0  12 9 0  12.5 9 0  13 9 0  13.5 9 0  14 9 0  14.5 9 0  15 9 0  15.5 9 0  16 9 0  16.5 9 0  17 9 0  17.5 9 0  18 9 0  18.5 9 0  19 9 0  19.5 9 0  20 9 0  0 9.5 0  0.5 9.5 0  1 9.5 0  1.5 9.5 0  2 9.5 0  2.5 9.5 0  3 9.5 0  3.5 9.5 0  4 9.5 0  4.5 9.5 0  5 9.5 0  5.5 9.5 0  6 9.5 0  6.5 9.5 0  7 9.5 0  7.5 9.5 0  8 9.5 0  8.5 9.5 0  9 9.5 0  9.5 9.5 0  10 9.5 0  10.5 9.5 0  11 9.5 0  11.5 9.5 0  12 9.5 0  12.5 9.5 0  13 9.5 0  13.5 9.5 0  14 9.5 0  14.5 9.5 0  15 9.5 0  15.5 9.5 0  16 9.5 0  16.5 9.5 0  17 9.5 0  17.5 9.5 0  18 9.5 0  18.5 9.5 0  19 9.5 0  19.5 9.5 0  20 9.5 0  0 10 0  0.5 10 0  1 10 0  1.5 10 0  2 10 0  2.5 10 0  3 10 0  3.5 10 0  4 10 0  4.5 10 0  5 10 0  5.5 10 0  6 10 0  6.5 10 0  7 10 0  7.5 10 0  8 10 0  8.5 10 0  9 10 0  9.5 10 0  10 10 0  10.5 10 0  11 10 0  11.5 10 0  12 10 0  12.5 10 0  13 10 0  13.5 10 0  14 10 0  14.5 10 0  15 10 0  15.5 10 0  16 10 0  16.5 10 0  17 10 0  17.5 10 0  18 10 0  18.5 10 0  19 10 0  19.5 10 0  20 10 0  0 10.5 0  0.5 10.5 0  1 10.5 0  1.5 10.5 0  2 10.5 0  2.5 10.5 0  3 10.5 0  3.5 10.5 0  4 10.5 0  4.5 10.5 0  5 10.5 0  5.5 10.5 0  6 10.5 0  6.5 10.5 0  7 10.5 0  7.5 10.5 0  8 10.5 0  8.5 10.5 0  9 10.5 0  9.5 10.5 0  10 10.5 0  10.5 10.5 0  11 10.5 0  11.5 10.5 0  12 10.5 0  12.5 10.5 0  13 10.5 0  13.5 10.5 0  14 10.5 0  14.5 10.5 0  15 10.5 0  15.5 10.5 0  16 10.5 0  16.5 10.5 0  17 10.5 0  17.5 10.5 0  18 10.5 0  18.5 10.5 0  19 10.5 0  19.5 10.5 0  20 10.5 0  0 11 0  0.5 11 0  1 11 0  1.5 11 0  2 11 0  2.5 11 0  3 11 0  3.5 11 0  4 11 0  4.5 11 0  5 11 0  5.5 11 0  6 11 0  6.5 11 0  7 11 0  7.5 11 0  8 11 0  8.5 11 0  9 11 0  9.5 11 0  10 11 0  10.5 11 0  11 11 0  11.5 11 0  12 11 0  12.5 11 0  13 11 0  13.5 11 0  14 11 0  14.5 11 0  15 11 0  15.5 11 0  16 11 0  16.5 11 0  17 11 0  17.5 11 0  18 11 0  18.5 11 0  19 11 0  19.5 11 0  20 11 0  0 11.5 0  0.5 11.5 0  1 11.5 0  1.5 11.5 0  2 11.5 0  2.5 11.5 0  3 11.5 0  3.5 11.5 0  4 11.5 0  4.5 11.5 0  5 11.5 0  5.5 11.5 0  6 11.5 0  6.5 11.5 0  7 11.5 0  7.5 11.5 0  8 11.5 0  8.5 11.5 0  9 11.5 0  9.5 11.5 0  10 11.5 0  10.5 11.5 0  11 11.5 0  11.5 11.5 0  12 11.5 0  12.5 11.5 0  13 11.5 0  13.5 11.5 0  14 11.5 0  14.5 11.5 0  15 11.5 0  15.5 11.5 0  16 11.5 0  16.5 11.5 0  17 11.5 0  17.5 11.5 0  18 11.5 0  18.5 11.5 0  19 11.5 0  19.5 11.5 0  20 11.5 0  0 12 0  0.5 12 0  1 12 0  1.5 12 0  2 12 0  2.5 12 0  3 12 0  3.5 12 0  4 12 0  4.5 12 0  5 12 0  5.5 12 0  6 12 0  6.5 12 0  7 12 0  7.5 12 0  8 12 0  8.5 12 0  9 12 0  9.5 12 0  10 12 0  10.5 12 0  11 12 0  11.5 12 0  12 12 0  12.5 12 0  13 12 0  13.5 12 0  14 12 0  14.5 12 0  
[...]
<PointData  Vectors="f_4890-0"> 
<DataArray  type="Float64"  Name="f_4890-0"  NumberOfComponents="3" format="ascii">0.0000000000000000e+00 0.0000000000000000e+00 0.0000000000000000e+00  -2.5061008769395423e-07 0.0000000000000000e+00 0.0000000000000000e+00  -1.1862762951575804e-06 0.0000000000000000e+00 0.0000000000000000e+00  -3.7310536066631283e-06 0.0000000000000000e+00 0.0000000000000000e+00  -8.6841834022038668e-06 0.0000000000000000e+00 0.0000000000000000e+00  -1.6828315541205424e-05 0.0000000000000000e+00 0.0000000000000000e+00  -2.8932780389967125e-05 0.0000000000000000e+00 0.0000000000000000e+00  -4.5749424008069993e-05 0.0000000000000000e+00 0.0000000000000000e+00  -6.8008058027983369e-05 0.0000000000000000e+00 0.0000000000000000e+00  -9.6411721586792077e-05 0.0000000000000000e+00 0.0000000000000000e+00  -1.3163160723170456e-04 0.0000000000000000e+00 0.0000000000000000e+00  -1.7430153685102731e-04 0.0000000000000000e+00 0.0000000000000000e+00  -2.2501187892030102e-04 0.0000000000000000e+00 0.0000000000000000e+00  -2.8430277160088893e-04 0.0000000000000000e+00 0.0000000000000000e+00  -3.5265645835438322e-04 0.0000000000000000e+00 0.0000000000000000e+00  -4.3048844292161527e-04 0.0000000000000000e+00 0.0000000000000000e+00  -5.1813700582830009e-04 0.0000000000000000e+00 0.0000000000000000e+00  -6.1585035941647936e-04 0.0000000000000000e+00 0.0000000000000000e+00  -7.2377029842316464e-04 0.0000000000000000e+00 0.0000000000000000e+00  -8.4191054714713963e-04 0.0000000000000000e+00 0.0000000000000000e+00  -9.7012699237547073e-04 0.0000000000000000e+00 0.0000000000000000e+00  -1.1080754496971066e-03 0.0000000000000000e+00 0.0000000000000000e+00  -1.2551502930870772e-03 0.0000000000000000e+00 0.0000000000000000e+00  -1.4103938405996060e-03 0.0000000000000000e+00 0.0000000000000000e+00  -1.5723613710660301e-03 0.0000000000000000e+00 0.0000000000000000e+00  -1.7389194512081863e-03 0.0000000000000000e+00 0.0000000000000000e+00  -1.9069451482657609e-03 0.0000000000000000e+00 0.0000000000000000e+00  -2.0718798686796534e-03 0.0000000000000000e+00 0.0000000000000000e+00  -2.2270732012584769e-03 0.0000000000000000e+00 0.0000000000000000e+00  -2.3628287135138669e-03 0.0000000000000000e+00 0.0000000000000000e+00  -2.4650352680168942e-03 0.0000000000000000e+00 0.0000000000000000e+00  -2.5132354502288420e-03 0.0000000000000000e+00 0.0000000000000000e+00  -2.4779504695925545e-03 0.0000000000000000e+00 0.0000000000000000e+00  -2.3170544058124590e-03 0.0000000000000000e+00 0.0000000000000000e+00  -1.9709786955400209e-03 0.0000000000000000e+00 0.0000000000000000e+00  -1.3565404756483636e-03 0.0000000000000000e+00 0.0000000000000000e+00  -3.5923307167118307e-04 0.0000000000000000e+00 0.0000000000000000e+00  1.1761119369525991e-03 0.0000000000000000e+00 0.0000000000000000e+00  3.4563261973305525e-03 0.0000000000000000e+00 0.0000000000000000e+00  6.7527625480802208e-03 0.0000000000000000e+00 0.0000000000000000e+00  1.1418161384717941e-02 0.0000000000000000e+00 0.0000000000000000e+00  0.0000000000000000e+00 -2.5061008803054437e-07 0.0000000000000000e+00  2.6789287602705805e-07 2.6789287776122915e-07 0.0000000000000000e+00  -3.0116197729901582e-07 1.5315811739739323e-06 0.0000000000000000e+00  -2.4602138689027132e-06 3.5525139740883281e-06 0.0000000000000000e+00  -7.0165247515677359e-06 6.3499779362888880e-06 0.0000000000000000e+00  -1.4760242033817770e-05 9.9227881169799254e-06 0.0000000000000000e+00  -2.6463668928202042e-05 1.4258459609349534e-05 0.0000000000000000e+00  -4.2879982051485211e-05 1.9337981670791596e-05 0.0000000000000000e+00  -6.4739883232316621e-05 2.5137295405068916e-05 0.0000000000000000e+00  -9.2747279739453415e-05 3.1627530432780219e-05 0.0000000000000000e+00  -1.2757436411744061e-04 3.8774824622716077e-05 0.0000000000000000e+00  -1.6985615442673073e-04 4.6540002700865334e-05 0.0000000000000000e+00  -2.2018444196398289e-04 5.4878207116786014e-05 0.0000000000000000e+00  -2.7910102907956994e-04 6.3738518617339020e-05 0.0000000000000000e+00  -3.4709006988542550e-04 7.3063588426465134e-05 0.0000000000000000e+00  -4.2456922260164276e-04 8.2789299959011348e-05 0.0000000000000000e+00  -5.1187915586016562e-04 9.2844477895816623e-05 0.0000000000000000e+00  -6.0927068566845070e-04 1.0315066329845095e-04 0.0000000000000000e+00  -7.1688839936197594e-04 1.1362197460665469e-04 0.0000000000000000e+00  -8.3474896677577636e-04 1.2416507551415390e-04 0.0000000000000000e+00  -9.6271132675925756e-04 1.3467927169618634e-04 0.0000000000000000e+00  -1.1004343954200654e-03 1.4505675963826686e-04 0.0000000000000000e+00  -1.2473156241693264e-03 1.5518305272816524e-04 0.0000000000000000e+00  -1.4024002973361102e-03 1.6493761298187154e-04 0.0000000000000000e+00  -1.5642464397328671e-03 1.7419472234074632e-04 0.0000000000000000e+00  -1.7307230059481211e-03 1.8282463667968410e-04 0.0000000000000000e+00  -1.8987089148587641e-03 1.9069507917794627e-04 0.0000000000000000e+00  -2.0636466523521117e-03 1.9767314759041468e-04 0.0000000000000000e+00  -2.2188857957076411e-03 2.0362773028884850e-04 0.0000000000000000e+00  -2.3547283745031168e-03 2.0843254044612287e-04 0.0000000000000000e+00  -2.4570595919566488e-03 2.1196987276293942e-04 0.0000000000000000e+00  -2.5054154468094280e-03 2.1413513535998346e-04 0.0000000000000000e+00  -2.4703065575707563e-03 2.1484207237987789e-04 0.0000000000000000e+00  -2.3095909881165342e-03 2.1402832274776236e-04 0.0000000000000000e+00  -1.9636768752509122e-03 2.1166050803777869e-04 0.0000000000000000e+00  -1.3493483903976463e-03 2.0773733688615015e-04 0.0000000000000000e+00  -3.5205364375469876e-04 2.0228790474644497e-04 0.0000000000000000e+00  1.1834326156357014e-03 1.9535842105712143e-04 0.0000000000000000e+00  3.4639814256400259e-03 1.8696386785387525e-04 0.0000000000000000e+00  6.7607006443803058e-03 1.7690658757533239e-04 0.0000000000000000e+00  1.1423044538143381e-02 1.6405760051954255e-04 0.0000000000000000e+00  0.0000000000000000e+00 -1.1862762930854386e-06 0.0000000000000000e+00  1.5315811771025927e-06 -3.0116197552721469e-07 0.0000000000000000e+00  2.1774204077356504e-06 2.1774204015990915e-06 0.0000000000000000e+00  1.2185501351178764e-06 6.2269490763266322e-06 0.0000000000000000e+00  -2.1379905837394525e-06 1.1840005663697145e-05 0.0000000000000000e+00  -8.6801415905400043e-06 1.9000674737524609e-05 0.0000000000000000e+00  -1.9181591428739423e-05 2.7682817723532459e-05 0.0000000000000000e+00  -3.4397570749156009e-05 3.7849987749682559e-05 0.0000000000000000e+00  -5.5061041891754300e-05 4.9455709099058659e-05 0.0000000000000000e+00  -8.1878465975917321e-05 6.2443508787513922e-05 0.0000000000000000e+00  -1.1552502991085896e-04 7.6746624017624940e-05 0.0000000000000000e+00  -1.5663930284227413e-04 9.2287478700648842e-05 0.0000000000000000e+00  -2.0581726248028044e-04 1.0897702945475512e-04 0.0000000000000000e+00  -2.6360558031122690e-04 1.2671405617920129e-04 0.0000000000000000e+00  -3.3049398355606738e-04 1.4538445326892383e-04 0.0000000000000000e+00  -4.0690640466242180e-04 1.6486056755198695e-04 0.0000000000000000e+00  -4.9319046079357280e-04 1.8500062572558934e-04 0.0000000000000000e+00  -5.8960453872544639e-04 2.0564829390079610e-04 0.0000000000000000e+00  -6.9630133956516773e-04 2.2663241347192087e-04 0.0000000000000000e+00  -8.1330608106414582e-04 2.4776695970649246e-04 0.0000000000000000e+00  -9.4048654251987346e-04 2.6885127178562045e-04 0.0000000000000000e+00  -1.0775105946663492e-03 2.8967060581566267e-04 0.0000000000000000e+00  -1.2237845365820721e-03 3.0999706588578566e-04 0.0000000000000000e+00  -1.3783621205581222e-03 3.2959097337342157e-04 0.0000000000000000e+00  -1.5398091216798555e-03 3.4820274269498612e-04 0.0000000000000000e+00  -1.7060011036506915e-03 3.6557534351160310e-04 0.0000000000000000e+00  -1.8738219157431756e-03 3.8144744562322992e-04 0.0000000000000000e+00  -2.0387166066069811e-03 3.9555736194522698e-04 0.0000000000000000e+00  -2.1940340652862114e-03 4.0764792142018036e-04 0.0000000000000000e+00  -2.3300712645479699e-03 4.1747240391722346e-04 0.0000000000000000e+00  -2.4327026132477483e-03 4.2480162730902877e-04 0.0000000000000000e+00  -2.4814459958196113e-03 4.2943214814058101e-04 0.0000000000000000e+00  -2.4467849407740073e-03 4.3119525102095667e-04 0.0000000000000000e+00  -2.2865400201706448e-03 4.2996585156061486e-04 0.0000000000000000e+00  -1.9410708333172646e-03 4.2566944049265667e-04 0.0000000000000000e+00  -1.3271031404423123e-03 4.1828335199372397e-04 0.0000000000000000e+00  -3.3002221143350907e-04 4.0782481033947124e-04 0.0000000000000000e+00  1.2054469766015349e-03 3.9430901411186415e-04 0.0000000000000000e+00  3.4861548767403023e-03 3.7763690529061839e-04 0.0000000000000000e+00  6.7829282906633585e-03 3.5731668371847137e-04 0.0000000000000000e+00  1.1444207160732110e-02 3.3184177414885329e-04 0.0000000000000000e+00  0.0000000000000000e+00 -3.7310536077650686e-06 0.0000000000000000e+00  3.5525139760182808e-06 -2.4602138730124543e-06 0.0000000000000000e+00  6.2269490766384267e-06 1.2185501295816811e-06 0.0000000000000000e+00  7.2793255844507422e-06 7.2793255847085689e-06 0.0000000000000000e+00  5.9285006152586139e-06 1.5698976500881167e-05 0.0000000000000000e+00  1.3898450883197879e-06 2.6446573271692985e-05 0.0000000000000000e+00  -7.1101695628476746e-06 3.9479186758608421e-05 0.0000000000000000e+00  -2.0328329645451021e-05 5.4740965904604022e-05 0.0000000000000000e+00  -3.9000328491980693e-05 7.2162495592963089e-05 0.0000000000000000e+00  -6.3836355208474034e-05 9.1660058228943504e-05 0.0000000000000000e+00  -9.5516312762982151e-05 1.1313477635303087e-04 0.0000000000000000e+00  -1.3468452773937706e-04 1.3647164426997286e-04 0.0000000000000000e+00  -1.8194384011214671e-04 1.6153847706594786e-04 0.0000000000000000e+00  -2.3784893775247073e-04 1.8818482097310475e-04 0.0000000000000000e+00  -3.0289874175410726e-04 2.1624087779103425e-04 0.0000000000000000e+00  -3.7752754652531221e-04 2.4551650121027992e-04 0.0000000000000000e+00  -4.6209445200802012e-04 2.7580032678139907e-04 0.0000000000000000e+00  -5.5687035869546341e-04 3.0685910099922459e-04 0.0000000000000000e+00  -6.6202137509636450e-04 3.3843727939782901e-04 0.0000000000000000e+00  -7.7758683017592641e-04 3.7025696787176555e-04 0.0000000000000000e+00  -9.0344907001458535e-04 4.0201828566925228e-04 0.0000000000000000e+00  -1.0392906740345675e-03 4.3340023305165503e-04 0.0000000000000000e+00  -1.1845324039085855e-03 4.6406215109765289e-04 0.0000000000000000e+00  -1.3382417540505251e-03 4.9364586653552923e-04 0.0000000000000000e+00  -1.4989969436642833e-03 5.2177862127684505e-04 0.0000000000000000e+00  -1.6646839795427387e-03 5.4807689430654049e-04 0.0000000000000000e+00  -1.8321942958808668e-03 5.7215123247067868e-04 0.0000000000000000e+00  -1.9969766249393400e-03 5.9361221128257768e-04 0.0000000000000000e+00  -2.1523783809852528e-03 6.1207763872890043e-04 0.0000000000000000e+00  -2.2886884264163606e-03 6.2718107334745678e-04 0.0000000000000000e+00  -2.3917647731958344e-03 6.3858161850055670e-04 0.0000000000000000e+00  -2.4410989479232564e-03 6.4597471797541741e-04 0.0000000000000000e+00  -2.4071367927381987e-03 6.4910322156392329e-04 0.0000000000000000e+00  -2.2476494284490510e-03 6.4776716623414542e-04 0.0000000000000000e+00  -1.9029368493389783e-03 6.4182928798335874e-04 0.0000000000000000e+00  -1.2896607722049887e-03 6.3121081090364306e-04 0.0000000000000000e+00  -2.9315199168889524e-04 6.1586776612831907e-04 0.0000000000000000e+00  1.2418778040899547e-03 5.9573082236625673e-04 0.0000000000000000e+00  3.5221817263349801e-03 5.7058150903629827e-04 0.0000000000000000e+00  6.8182391179211150e-03 5.3983602461021385e-04 0.0000000000000000e+00  1.1477711676039158e-02 5.0227605890883220e-04 0.0000000000000000e+00  0.0000000000000000e+00 -8.6841834046977757e-06 0.0000000000000000e+00  6.3499779372768020e-06 -7.0165247549476946e-06 0.0000000000000000e+00  1.1840005664043700e-05 -2.1379905869000801e-06 0.0000000000000000e+00  1.5698976499742155e-05 5.9285006142761353e-06 0.0000000000000000e+00  1.7149501344098206e-05 1.7149501345426556e-05 0.0000000000000000e+00  1.5409348048941638e-05 3.1481042983711234e-05 0.0000000000000000e+00  9.7048574500619813e-06 4.8864628864604649e-05 0.0000000000000000e+00  -7.2262446097270932e-07 6.9225653124379804e-05 0.0000000000000000e+00  -1.6612115442583013e-05 9.2472259919817797e-05 0.0000000000000000e+00  -3.8678555177775332e-05 1.1849415270843203e-04 0.0000000000000000e+00  -6.7608069455768130e-05 1.4716126860971971e-04 0.0000000000000000e+00  -1.0405274940123470e-04 1.7832233715331711e-04 0.0000000000000000e+00  -1.4862480988503393e-04 2.1180336576248114e-04 0.0000000000000000e+00  -2.0188997546079094e-04 2.4740610262830639e-04 0.0000000000000000e+00  -2.6435988694743643e-04 2.8490653598226467e-04 0.0000000000000000e+00  -3.3648322182114332e-04 3.2405349789492915e-04 0.0000000000000000e+00  -4.1863505635966508e-04 3.6456744990374565e-04 0.0000000000000000e+00  -5.1110373129351517e-04 4.0613953665772756e-04 0.0000000000000000e+00  -6.1407406210936078e-04 4.4843100225618889e-04 0.0000000000000000e+00  -7.2760507787476164e-04 4.9107307187656434e-04 0.0000000000000000e+00  -8.5159945899472762e-04 5.3366740813084307e-04 0.0000000000000000e+00  -9.8576029961160074e-04 5.7578725822052528e-04 0.0000000000000000e+00  -1.1295284970678978e-03 6.1697941267617798e-04 0.0000000000000000e+00  -1.2819906247800359e-03 6.5676710072024556e-04 0.0000000000000000e+00  -1.4417421139065743e-03 6.9465394954584022e-04 0.0000000000000000e+00  -1.6066833562407216e-03 7.3012913416200024e-04 0.0000000000000000e+00  -1.7737162183149473e-03 7.6267383793485167e-04 0.0000000000000000e+00  -1.9382946099109992e-03 7.9176912432893376e-04 0.0000000000000000e+00  -2.0937643970975108e-03 8.1690527510775118e-04 0.0000000000000000e+00  -2.2304045772999883e-03 8.3759255539146260e-04 0.0000000000000000e+00  -2.3340533974427059e-03 8.5337318353246650e-04 0.0000000000000000e+00  -2.3841714106502877e-03 8.6383395235752199e-04 0.0000000000000000e+00  -2.3511617389225738e-03 8.6861838016283918e-04 0.0000000000000000e+00  -2.1927421224436404e-03 8.6743634054167957e-04 0.0000000000000000e+00  -1.8491526403667563e-03 8.6006767627932199e-04 0.0000000000000000e+00  -1.2369980317897167e-03 8.4635420217802878e-04 0.0000000000000000e+00  -2.4157354730025779e-04 8.2617182807956412e-04 0.0000000000000000e+00  1.2923904867807117e-03 7.9937236021076379e-04 0.0000000000000000e+00  3.5715235024702482e-03 7.6568725354786297e-04 0.0000000000000000e+00  6.8660219867540057e-03 7.2460650471501352e-04 0.0000000000000000e+00  1.1523151998045026e-02 6.7531543891544490e-04 0.0000000000000000e+00  0.0000000000000000e+00 -1.6828315543702762e-05 0.0000000000000000e+00  9.9227881166669061e-06 -1.4760242036023715e-05 0.0000000000000000e+00  1.9000674738653111e-05 -8.6801415938315540e-06 0.0000000000000000e+00  2.6446573270794937e-05 1.3898450860934344e-06 0.0000000000000000e+00  3.1481042985471044e-05 1.5409348047031629e-05 0.0000000000000000e+00  3.3323069627876001e-05 3.3323069625877579e-05 0.0000000000000000e+00  3.1198521732956942e-05 5.5058311619925285e-05 0.0000000000000000e+00  2.4346482142486966e-05 8.0523047867771366e-05 0.0000000000000000e+00  1.2023950384090446e-05 1.0960435466532841e-04 0.0000000000000000e+00  -6.4897644136020453e-06 1.4216680072414304e-04 0.0000000000000000e+00  -3.1888417944663128e-05 1.7805069174376182e-04 0.0000000000000000e+00  -6.4833730929181161e-05 2.1707017695922365e-04 0.0000000000000000e+00  -1.0594965308133212e-04 2.5901126335945319e-04 0.0000000000000000e+00  -1.5581582397085502e-04 3.0362979952414473e-04 0.0000000000000000e+00  -2.1496001188634354e-04 3.5064950246193753e-04 0.0000000000000000e+00  -2.8384921263991135e-04 3.9976011170246616e-04 0.0000000000000000e+00  -3.6287892459591439e-04 4.5061576698674584e-04 0.0000000000000000e+00  -4.5235985016581432e-04 5.0283371774437647e-04 0.0000000000000000e+00  -5.5250085295390828e-04 5.5599348485358075e-04 0.0000000000000000e+00  -6.6338634264634236e-04 6.0963660649273829e-04 0.0000000000000000e+00  -7.8494524612219381e-04 6.6326710977831019e-04 0.0000000000000000e+00  -9.1690717885118235e-04 7.1635285837059234e-04 0.0000000000000000e+00  -1.0587391076189671e-03 7.6832793118884952e-04 0.0000000000000000e+00  -1.2095523501341630e-03 8.1859618931593640e-04 0.0000000000000000e+00  -1.3679647276501725e-03 8.6653618415101909e-04 0.0000000000000000e+00  -1.5318954775161127e-03 9.1150754779762821e-04 0.0000000000000000e+00  -1.6982604181355607e-03 9.5285898137754629e-04 0.0000000000000000e+00  -1.8625210283968745e-03 9.8993790952054588e-04 0.0000000000000000e+00  -2.0180227821967839e-03 1.0221017855691281e-03 0.0000000000000000e+00  -2.1550347619670026e-03 1.0487308882169346e-03 0.0000000000000000e+00  -2.2593744325801407e-03 1.0692422123700222e-03 0.0000000000000000e+00  -2.3104699196632608e-03 1.0831036758615277e-03 0.0000000000000000e+00  -2.2786806291297257e-03 1.0898472802257741e-03 0.0000000000000000e+00  -2.1216716654065522e-03 1.0890790198331503e-03 0.0000000000000000e+00  -1.7796271972326974e-03 1.0804822168832241e-03 0.0000000000000000e+00  -1.1691033400599295e-03 1.0638097211942451e-03 0.0000000000000000e+00  -1.7537111456344089e-04 1.0388596551204436e-03 0.0000000000000000e+00  1.3568153570852580e-03 1.0054307571719520e-03 0.0000000000000000e+00  3.6339903404133860e-03 9.6326052979461016e-04 0.0000000000000000e+00  6.9261876792002294e-03 9.1196839923263153e-04 0.0000000000000000e+00  1.1580550491614699e-02 8.5106073030092059e-04 0.0000000000000000e+00  0.0000000000000000e+00 -2.8932780393694653e-05 0.0000000000000000e+00  1.4258459608867559e-05 -2.6463668931110736e-05 0.0000000000000000e+00  2.7682817718828983e-05 -1.9181591431387922e-05 0.0000000000000000e+00  3.9479186754017970e-05 -7.1101695632359164e-06 0.0000000000000000e+00  4.8864628861744286e-05 9.7048574467885733e-06 0.0000000000000000e+00  5.5058311613433876e-05 3.1198521737848293e-05 0.0000000000000000e+00  5.7285407821103539e-05 5.7285407827764707e-05 0.0000000000000000e+00  5.4782516587163900e-05 8.7857658130240405e-05 0.0000000000000000e+00  4.6802180759826788e-05 1.2278304185325332e-04 0.0000000000000000e+00  3.2617134809409285e-05 1.6190292957463779e-04 0.0000000000000000e+00  1.1524761783882098e-05 2.0503009586694937e-04 0.0000000000000000e+00  -1.7147976200265962e-05 2.5194635570863054e-04 0.0000000000000000e+00  -5.4038949307664277e-05 3.0240008220144946e-04 0.0000000000000000e+00  -9.9744429189844376e-05 3.5610367499671946e-04 0.0000000000000000e+00  -1.5481158297818402e-04 4.1273106491508850e-04 0.0000000000000000e+00  -2.1972956014193758e-04 4.7191535530979959e-04 0.0000000000000000e+00  -2.9491867463238622e-04 5.3324671592683075e-04 0.0000000000000000e+00  -3.8071691785530496e-04 5.9627066089885310e-04 0.0000000000000000e+00  -4.7736261670936880e-04 6.6048685819681228e-04 0.0000000000000000e+00  -5.8497139363924142e-04 7.2534863305188512e-04 0.0000000000000000e+00  -7.0350457258662284e-04 7.9026334092688582e-04 0.0000000000000000e+00  -8.3272463139926985e-04 8.5459379615147153e-04 0.0000000000000000e+00  -9.7213098016504362e-04 9.1766094799214024e-04 0.0000000000000000e+00  -1.1208659030894623e-03 9.7874799511960420e-04 0.0000000000000000e+00  -1.2775754778341542e-03 1.0371061195386445e-03 0.0000000000000000e+00  -1.4402030866478817e-03 1.0919619970252163e-03 0.0000000000000000e+00  -1.6056830348108071e-03 1.1425271976658079e-03 0.0000000000000000e+00  -1.7694879873866396e-03 1.1880095170115532e-03 0.0000000000000000e+00  -1.9249656545512876e-03 1.2276261619687473e-03 0.0000000000000000e+00  -2.0623769018309076e-03 1.2606185361357103e-03 0.0000000000000000e+00  -2.1675194115144381e-03 1.2862681014444387e-03 0.0000000000000000e+00  -2.2197896119287215e-03 1.3039124081737461e-03 0.0000000000000000e+00  -2.1895042467763963e-03 1.3129598610353117e-03 0.0000000000000000e+00  -2.0342777521514827e-03 1.3129011324516276e-03 0.0000000000000000e+00  -1.6942414113400852e-03 1.3033144341652858e-03 0.0000