<?xml version="1.0"?>
<VTKFile type="UnstructuredGrid"  version="0.1"  >
<UnstructuredGrid>
<Piece  NumberOfPoints="1681" NumberOfCells="3200">
<Points>
<DataArray  type="Float64"  NumberOfComponents="3"  format="ascii">0 0 0  0.5 0 0  1 0 0  1.5 0 0  2 0 0  2.5 0 0  3 0 0  3.5 0 0  4 0 0  4.5 0 0  5 0 0  5.5 0 0  6 0 0  6.5 0 0  7 0 0  7.5 0 0  8 0 0  8.5 0 0  9 0 0  9.5 0 0  10 0 0  10.5 0 0  11 0 0  11.5 0 0  12 0 0  12.5 0 0  13 0 0  13.5 0 0  14 0 0  14.5 0 0  15 0 0  15.5 0 0  16 0 0  16.5 0 0  17 0 0  17.5 0 0  18 0 0  18.5 0 0  19 0 0  19.5 0 0  20 0 0  0 0.5 0  0.5 0.5 0  1 0.5 0  1.5 0.5 0  2 0.5 0  2.5 0.5 0  3 0.5 0  3.5 0.5 0  4 0.5 0  4.5 0.5 0  5 0.5 0  5.5 0.5 0  6 0.5 0  6.5 0.5 0  7 0.5 0  7.5 0.5 0  8 0.5 0  8.5 0.5 0  9 0.5 0  9.5 0.5 0  10 0.5 0  10.5 0.5 0  11 0.5 0  11.5 0.5 0  12 0.5 0  12.5 0.5 0  13 0.5 0  13.5 0.5 0  14 0.5 0  14.5 0.5 0  15 0.5 0  15.5 0.5 0  16 0.5 0  16.5 0.5 0  17 0.5 0  17.5 0.5 0  18 0.5 0  18.5 0.5 0  19 0.5 0  19.5 0.5 0  20 0.5 0  0 1 0  0.5 1 0  1 1 0  1.5 1 0  2 1 0  2.5 1 0  3 1 0  3.5 1 0  4 1 0  4.5 1 0  5 1 0  5.5 1 0  6 1 0  6.5 1 0  7 1 0  7.5 1 0  8 1 0  8.5 1 0  9 1 0  9.5 1 0  10 1 0  10.5 1 0  11 1 0  11.5 1 0  12 1 0  12.5 1 0  13 1 0  13.5 1 0  14 1 0  14.5 1 0  15 1 0  15.5 1 0  16 1 0  16.5 1 0  17 1 0  17.5 1 0  18 1 0  18.5 1 0  19 1 0  19.5 1 0  20 1 0  0 1.5 0  0.5 1.5 0  1 1.5 0  1.5 1.5 0  2 1.5 0  2.5 1.5 0  3 1.5 0  3.5 1.5 0  4 1.5 0  4.5 1.5 0  5 1.5 0  5.5 1.5 0  6 1.5 0  6.5 1.5 0  7 1.5 0  7.5 1.5 0  8 1.5 0  8.5 1.5 0  9 1.5 0  9.5 1.5 0  10 1.5 0  10.5 1.5 0  11 1.5 0  11.5 1.5 0  12 1.5 0  12.5 1.5 0  13 1.5 0  13.5 1.5 0  14 1.5 0  14.5 1.5 0  15 1.5 0  15.5 1.5 0  16 1.5 0  16.5 1.5 0  17 1.5 0  17.5 1.5 0  18 1.5 0  18.5 1.5 0  19 1.5 0  19.5 1.5 0  20 1.5 0  0 2 0  0.5 2 0  1 2 0  1.5 2 0  2 2 0  2.5 2 0  3 2 0  3.5 2 0  4 2 0  4.5 2 0  5 2 0  5.5 2 0  6 2 0  6.5 2 0  7 2 0  7.5 2 0  8 2 0  8.5 2 0  9 2 0  9.5 2 0  10 2 0  10.5 2 0  11 2 0  11.5 2 0  12 2 0  12.5 2 0  13 2 0  13.5 2 0  14 2 0  14.5 2 0  15 2 0  15.5 2 0  16 2 0  16.5 2 0  17 2 0  17.5 2 0  18 2 0  18.5 2 0  19 2 0  19.5 2 0  20 2 0  0 2.5 0  0.5 2.5 0  1 2.5 0  1.5 2.5 0  2 2.5 0  2.5 2.5 0  3 2.5 0  3.5 2.5 0  4 2.5 0  4.5 2.5 0  5 2.5 0  5.5 2.5 0  6 2.5 0  6.5 2.5 0  7 2.5 0  7.5 2.5 0  8 2.5 0  8.5 2.5 0  9 2.5 0  9.5 2.5 0  10 2.5 0  10.5 2.5 0  11 2.5 0  11.5 2.5 0  12 2.5 0  12.5 2.5 0  13 2.5 0  13.5 2.5 0  14 2.5 0  14.5 2.5 0  15 2.5 0  15.5 2.5 0  16 2.5 0  16.5 2.5 0  17 2.5 0  17.5 2.5 0  18 2.5 0  18.5 2.5 0  19 2.5 0  19.5 2.5 0  20 2.5 0  0 3 0  0.5 3 0  1 3 0  1.5 3 0  2 3 0  2.5 3 0  3 3 0  3.5 3 0  4 3 0  4.5 3 0  5 3 0  5.5 3 0  6 3 0  6.5 3 0  7 3 0  7.5 3 0  8 3 0  8.5 3 0  9 3 0  9.5 3 0  10 3 0  10.5 3 0  11 3 0  11.5 3 0  12 3 0  12.5 3 0  13 3 0  13.5 3 0  14 3 0  14.5 3 0  15 3 0  15.5 3 0  16 3 0  16.5 3 0  17 3 0  17.5 3 0  18 3 0  18.5 3 0  19 3 0  19.5 3 0  20 3 0  0 3.5 0  0.5 3.5 0  1 3.5 0  1.5 3.5 0  2 3.5 0  2.5 3.5 0  3 3.5 0  3.5 3.5 0  4 3.5 0  4.5 3.5 0  5 3.5 0  5.5 3.5 0  6 3.5 0  6.5 3.5 0  7 3.5 0  7.5 3.5 0  8 3.5 0  8.5 3.5 0  9 3.5 0  9.5 3.5 0  10 3.5 0  10.5 3.5 0  11 3.5 0  11.5 3.5 0  12 3.5 0  12.5 3.5 0  13 3.5 0  13.5 3.5 0  14 3.5 0  14.5 3.5 0  15 3.5 0  15.5 3.5 0  16 3.5 0  16.5 3.5 0  17 3.5 0  17.5 3.5 0  18 3.5 0  18.5 3.5 0  19 3.5 0  19.5 3.5 0  20 3.5 0  0 4 0  0.5 4 0  1 4 0  1.5 4 0  2 4 0  2.5 4 0  3 4 0  3.5 4 0  4 4 0  4.5 4 0  5 4 0  5.5 4 0  6 4 0  6.5 4 0  7 4 0  7.5 4 0  8 4 0  8.5 4 0  9 4 0  9.5 4 0  10 4 0  10.5 4 0  11 4 0  11.5 4 0  12 4 0  12.5 4 0  13 4 0  13.5 4 0  14 4 0  14.5 4 0  15 4 0  15.5 4 0  16 4 0  16.5 4 0  17 4 0  17.5 4 0  18 4 0  18.5 4 0  19 4 0  19.5 4 0  20 4 0  0 4.5 0  0.5 4.5 0  1 4.5 0  1.5 4.5 0  2 4.5 0  2.5 4.5 0  3 4.5 0  3.5 4.5 0  4 4.5 0  4.5 4.5 0  5 4.5 0  5.5 4.5 0  6 4.5 0  6.5 4.5 0  7 4.5 0  7.5 4.5 0  8 4.5 0  8.5 4.5 0  9 4.5 0  9.5 4.5 0  10 4.5 0  10.5 4.5 0  11 4.5 0  11.5 4.5 0  12 4.5 0  12.5 4.5 0  13 4.5 0  13.5 4.5 0  14 4.5 0  14.5 4.5 0  15 4.5 0  15.5 4.5 0  16 4.5 0  16.5 4.5 0  17 4.5 0  17.5 4.5 0  18 4.5 0  18.5 4.5 0  19 4.5 0  19.5 4.5 0  20 4.5 0  0 5 0  0.5 5 0  1 5 0  1.5 5 0  2 5 0  2.5 5 0  3 5 0  3.5 5 0  4 5 0  4.5 5 0  5 5 0  5.5 5 0  6 5 0  6.5 5 0  7 5 0  7.5 5 0  8 5 0  8.5 5 0  9 5 0  9.5 5 0  10 5 0  10.5 5 0  11 5 0  11.5 5 0  12 5 0  12.5 5 0  13 5 0  13.5 5 0  14 5 0  14.5 5 0  15 5 0  15.5 5 0  16 5 0  16.5 5 0  17 5 0  17.5 5 0  18 5 0  18.5 5 0  19 5 0  19.5 5 0  20 5 0  0 5.5 0  0.5 5.5 0  1 5.5 0  1.5 5.5 0  2 5.5 0  2.5 5.5 0  3 5.5 0  3.5 5.5 0  4 5.5 0  4.5 5.5 0  5 5.5 0  5.5 5.5 0  6 5.5 0  6.5 5.5 0  7 5.5 0  7.5 5.5 0  8 5.5 0  8.5 5.5 0  9 5.5 0  9.5 5.5 0  10 5.5 0  10.5 5.5 0  11 5.5 0  11.5 5.5 0  12 5.5 0  12.5 5.5 0  13 5.5 0  13.5 5.5 0  14 5.5 0  14.5 5.5 0  15 5.5 0  15.5 5.5 0  16 5.5 0  16.5 5.5 0  17 5.5 0  17.5 5.5 0  18 5.5 0  18.5 5.5 0  19 5.5 0  19.5 5.5 0  20 5.5 0  0 6 0  0.5 6 0  1 6 0  1.5 6 0  2 6 0  2.5 6 0  3 6 0  3.5 6 0  4 6 0  4.5 6 0  5 6 0  5.5 6 0  6 6 0  6.5 6 0  7 6 0  7.5 6 0  8 6 0  8.5 6 0  9 6 0  9.5 6 0  10 6 0  10.5 6 0  11 6 0  11.5 6 0  12 6 0  12.5 6 0  13 6 0  13.5 6 0  14 6 0  14.5 6 0  15 6 0  15.5 6 0  16 6 0  16.5 6 0  17 6 0  17.5 6 0  18 6 0  18.5 6 0  19 6 0  19.5 6 0  20 6 0  0 6.5 0  0.5 6.5 0  1 6.5 0  1.5 6.5 0  2 6.5 0  2.5 6.5 0  3 6.5 0  3.5 6.5 0  4 6.5 0  4.5 6.5 0  5 6.5 0  5.5 6.5 0  6 6.5 0  6.5 6.5 0  7 6.5 0  7.5 6.5 0  8 6.5 0  8.5 6.5 0  9 6.5 0  9.5 6.5 0  10 6.5 0  10.5 6.5 0  11 6.5 0  11.5 6.5 0  12 6.5 0  12.5 6.5 0  13 6.5 0  13.5 6.5 0  14 6.5 0  14.5 6.5 0  15 6.5 0  15.5 6.5 0  16 6.5 0  16.5 6.5 0  17 6.5 0  17.5 6.5 0  18 6.5 0  18.5 6.5 0  19 6.5 0  19.5 6.5 0  20 6.5 0  0 7 0  0.5 7 0  1 7 0  1.5 7 0  2 7 0  2.5 7 0  3 7 0  3.5 7 0  4 7 0  4.5 7 0  5 7 0  5.5 7 0  6 7 0  6.5 7 0  7 7 0  7.5 7 0  8 7 0  8.5 7 0  9 7 0  9.5 7 0  10 7 0  10.5 7 0  11 7 0  11.5 7 0  12 7 0  12.5 7 0  13 7 0  13.5 7 0  14 7 0  14.5 7 0  15 7 0  15.5 7 0  16 7 0  16.5 7 0  17 7 0  17.5 7 0  18 7 0  18.5 7 0  19 7 0  19.5 7 0  20 7 0  0 7.5 0  0.5 7.5 0  1 7.5 0  1.5 7.5 0  2 7.5 0  2.5 7.5 0  3 7.5 0  3.5 7.5 0  4 7.5 0  4.5 7.5 0  5 7.5 0  5.5 7.5 0  6 7.5 0  6.5 7.5 0  7 7.5 0  7.5 7.5 0  8 7.5 0  8.5 7.5 0  9 7.5 0  9.5 7.5 0  10 7.5 0  10.5 7.5 0  11 7.5 0  11.5 7.5 0  12 7.5 0  12.5 7.5 0  13 7.5 0  13.5 7.5 0  14 7.5 0  14.5 7.5 0  15 7.5 0  15.5 7.5 0  16 7.5 0  16.5 7.5 0  17 7.5 0  17.5 7.5 0  18 7.5 0  18.5 7.5 0  19 7.5 0  19.5 7.5 0  20 7.5 0  0 8 0  0.5 8 0  1 8 0  1.5 8 0  2 8 0  2.5 8 0  3 8 0  3.5 8 0  4 8 0  4.5 8 0  5 8 0  5.5 8 0  6 8 0  6.5 8 0  7 8 0  7.5 8 0  8 8 0  8.5 8 0  9 8 0  9.5 8 0  10 8 0  10.5 8 0  11 8 0  11.5 8 0  12 8 0  12.5 8 0  13 8 0  13.5 8 0  14 8 0  14.5 8 0  15 8 0  15.5 8 0  16 8 0  16.5 8 0  17 8 0  17.5 8 0  18 8 0  18.5 8 0  19 8 0  19.5 8 0  20 8 0  0 8.5 0  0.5 8.5 0  1 8.5 0  1.5 8.5 0  2 8.5 0  2.5 8.5 0  3 8.5 0  3.5 8.5 0  4 8.5 0  4.5 8.5 0  5 8.5 0  5.5 8.5 0  6 8.5 0  6.5 8.5 0  7 8.5 0  7.5 8.5 0  8 8.5 0  8.5 8.5 0  9 8.5 0  9.5 8.5 0  10 8.5 0  10.5 8.5 0  11 8.5 0  11.5 8.5 0  12 8.5 0  12.5 8.5 0  13 8.5 0  13.5 8.5 0  14 8.5 0  14.5 8.5 0  15 8.5 0  15.5 8.5 0  16 8.5 0  16.5 8.5 0  17 8.5 0  17.5 8.5 0  18 8.5 0  18.5 8.5 0  19 8.5 0  19.5 8.5 0  20 8.5 0  0 9 0  0.5 9 0  1 9 0  1.5 9 0  2 9 0  2.5 9 0  3 9 0  3.5 9 0  4 9 0  4.5 9 0  5 9 0  5.5 9 0  6 9 0  6.5 9 0  7 9 0  7.5 9 0  8 9 0  8.5 9 0  9 9 0  9.5 9 0  10 9 0  10.5 9 0  11 9 0  11.5 9 0  12 9 0  12.5 9 0  13 9 0  13.5 9 0  14 9 0  14.5 9 0  15 9 0  15.5 9 0  16 9 0  16.5 9 0  17 9 0  17.5 9 0  18 9 0  18.5 9 0  19 9 0  19.5 9 0  20 9 0  0 9.5 0  0.5 9.5 0  1 9.5 0  1.5 9.5 0  2 9.5 0  2.5 9.5 0  3 9.5 0  3.5 9.5 0  4 9.5 0  4.5 9.5 0  5 9.5 0  5.5 9.5 0  6 9.5 0  6.5 9.5 0  7 9.5 0  7.5 9.5 0  8 9.5 0  8.5 9.5 0  9 9.5 0  9.5 9.5 0  10 9.5 0  10.5 9.5 0  11 9.5 0  11.5 9.5 0  12 9.5 0  12.5 9.5 0  13 9.5 0  13.5 9.5 0  14 9.5 0  14.5 9.5 0  15 9.5 0  15.5 9.5 0  16 9.5 0  16.5 9.5 0  17 9.5 0  17.5 9.5 0  18 9.5 0  18.5 9.5 0  19 9.5 0  19.5 9.5 0  20 9.5 0  0 10 0  0.5 10 0  1 10 0  1.5 10 0  2 10 0  2.5 10 0  3 10 0  3.5 10 0  4 10 0  4.5 10 0  5 10 0  5.5 10 0  6 10 0  6.5 10 0  7 10 0  7.5 10 0  8 10 0  8.5 10 0  9 10 0  9.5 10 0  10 10 0  10.5 10 0  11 10 0  11.5 10 0  12 10 0  12.5 10 0  13 10 0  13.5 10 0  14 10 0  14.5 10 0  15 10 0  15.5 10 0  16 10 0  16.5 10 0  17 10 0  17.5 10 0  18 10 0  18.5 10 0  19 10 0  19.5 10 0  20 10 0  0 10.5 0  0.5 10.5 0  1 10.5 0  1.5 10.5 0  2 10.5 0  2.5 10.5 0  3 10.5 0  3.5 10.5 0  4 10.5 0  4.5 10.5 0  5 10.5 0  5.5 10.5 0  6 10.5 0  6.5 10.5 0  7 10.5 0  7.5 10.5 0  8 10.5 0  8.5 10.5 0  9 10.5 0  9.5 10.5 0  10 10.5 0  10.5 10.5 0  11 10.5 0  11.5 10.5 0  12 10.5 0  12.5 10.5 0  13 10.5 0  13.5 10.5 0  14 10.5 0  14.5 10.5 0  15 10.5 0  15.5 10.5 0  16 10.5 0  16.5 10.5 0  17 10.5 0  17.5 10.5 0  18 10.5 0  18.5 10.5 0  19 10.5 0  19.5 10.5 0  20 10.5 0  0 11 0  0.5 11 0  1 11 0  1.5 11 0  2 11 0  2.5 11 0  3 11 0  3.5 11 0  4 11 0  4.5 11 0  5 11 0  5.5 11 0  6 11 0  6.5 11 0  7 11 0  7.5 11 0  8 11 0  8.5 11 0  9 11 0  9.5 11 0  10 11 0  10.5 11 0  11 11 0  11.5 11 0  12 11 0  12.5 11 0  13 11 0  13.5 11 0  14 11 0  14.5 11 0  15 11 0  15.5 11 0  16 11 0  16.5 11 0  17 11 0  17.5 11 0  18 11 0  18.5 11 0  19 11 0  19.5 11 0  20 11 0  0 11.5 0  0.5 11.5 0  1 11.5 0  1.5 11.5 0  2 11.5 0  2.5 11.5 0  3 11.5 0  3.5 11.5 0  4 11.5 0  4.5 11.5 0  5 11.5 0  5.5 11.5 0  6 11.5 0  6.5 11.5 0  7 11.5 0  7.5 11.5 0  8 11.5 0  8.5 11.5 0  9 11.5 0  9.5 11.5 0  10 11.5 0  10.5 11.5 0  11 11.5 0  11.5 11.5 0  12 11.5 0  12.5 11.5 0  13 11.5 0  13.5 11.5 0  14 11.5 0  14.5 11.5 0  15 11.5 0  15.5 11.5 0  16 11.5 0  16.5 11.5 0  17 11.5 0  17.5 11.5 0  18 11.5 0  18.5 11.5 0  19 11.5 0  19.5 11.5 0  20 11.5 0  0 12 0  0.5 12 0  1 12 0  1.5 12 0  2 12 0  2.5 12 0  3 12 0  3.5 12 0  4 12 0  4.5 12 0  5 12 0  5.5 12 0  6 12 0  6.5 12 0  7 12 0  7.5 12 0  8 12 0  8.5 12 0  9 12 0  9.5 12 0  10 12 0  10.5 12 0  11 12 0  11.5 12 0  12 12 0  12.5 12 0  13 12 0  13.5 12 0  14 12 0  14.5 12 0  
[...]
<PointData  Vectors="f_826-0"> 
<DataArray  type="Float64"  Name="f_826-0"  NumberOfComponents="3" format="ascii">0.0000000000000000e+00 0.0000000000000000e+00 0.0000000000000000e+00  3.6685591303603694e-04 0.0000000000000000e+00 0.0000000000000000e+00  7.2490997526856906e-04 0.0000000000000000e+00 0.0000000000000000e+00  1.0522991549521733e-03 0.0000000000000000e+00 0.0000000000000000e+00  1.3340755869046222e-03 0.0000000000000000e+00 0.0000000000000000e+00  1.5569782904923113e-03 0.0000000000000000e+00 0.0000000000000000e+00  1.7094481795216425e-03 0.0000000000000000e+00 0.0000000000000000e+00  1.7820681448449626e-03 0.0000000000000000e+00 0.0000000000000000e+00  1.7680505830236775e-03 0.0000000000000000e+00 0.0000000000000000e+00  1.6637537018337645e-03 0.0000000000000000e+00 0.0000000000000000e+00  1.4692325570139844e-03 0.0000000000000000e+00 0.0000000000000000e+00  1.1888311941816419e-03 0.0000000000000000e+00 0.0000000000000000e+00  8.3182222207862846e-04 0.0000000000000000e+00 0.0000000000000000e+00  4.1310064936687181e-04 0.0000000000000000e+00 0.0000000000000000e+00  -4.6060323926932542e-05 0.0000000000000000e+00 0.0000000000000000e+00  -5.1718268637026838e-04 0.0000000000000000e+00 0.0000000000000000e+00  -9.6367571224083726e-04 0.0000000000000000e+00 0.0000000000000000e+00  -1.3398342245650651e-03 0.0000000000000000e+00 0.0000000000000000e+00  -1.5897277000780879e-03 0.0000000000000000e+00 0.0000000000000000e+00  -1.6459612350619116e-03 0.0000000000000000e+00 0.0000000000000000e+00  -1.4282845705026078e-03 0.0000000000000000e+00 0.0000000000000000e+00  -8.4201901239355076e-04 0.0000000000000000e+00 0.0000000000000000e+00  2.2373634409690948e-04 0.0000000000000000e+00 0.0000000000000000e+00  1.8981688998384574e-03 0.0000000000000000e+00 0.0000000000000000e+00  4.3311522146238287e-03 0.0000000000000000e+00 0.0000000000000000e+00  7.6960663018390187e-03 0.0000000000000000e+00 0.0000000000000000e+00  1.2193151720948073e-02 0.0000000000000000e+00 0.0000000000000000e+00  1.8053549343806305e-02 0.0000000000000000e+00 0.0000000000000000e+00  2.5544232149905029e-02 0.0000000000000000e+00 0.0000000000000000e+00  3.4974113355675303e-02 0.0000000000000000e+00 0.0000000000000000e+00  4.6701728822876286e-02 0.0000000000000000e+00 0.0000000000000000e+00  6.1145060910545793e-02 0.0000000000000000e+00 0.0000000000000000e+00  7.8794329093226159e-02 0.0000000000000000e+00 0.0000000000000000e+00  1.0022897767217409e-01 0.0000000000000000e+00 0.0000000000000000e+00  1.2614074750970866e-01 0.0000000000000000e+00 0.0000000000000000e+00  1.5736582677205907e-01 0.0000000000000000e+00 0.0000000000000000e+00  1.9493104687858698e-01 0.0000000000000000e+00 0.0000000000000000e+00  2.4012288611820284e-01 0.0000000000000000e+00 0.0000000000000000e+00  2.9459647414490953e-01 0.0000000000000000e+00 0.0000000000000000e+00  3.6056636502885298e-01 0.0000000000000000e+00 0.0000000000000000e+00  4.4121535633456349e-01 0.0000000000000000e+00 0.0000000000000000e+00  0.0000000000000000e+00 3.6685591303075687e-04 0.0000000000000000e+00  3.8634007107830285e-04 3.8634007107875051e-04 0.0000000000000000e+00  7.5645760430793560e-04 4.3151049766013339e-04 0.0000000000000000e+00  1.0968696131518996e-03 5.0250570754420334e-04 0.0000000000000000e+00  1.3922615432588991e-03 6.0032773646901067e-04 0.0000000000000000e+00  1.6290009619689418e-03 7.2514406447585038e-04 0.0000000000000000e+00  1.7953763510094507e-03 8.7665175213758051e-04 0.0000000000000000e+00  1.8819046758502276e-03 1.0542989231645378e-03 0.0000000000000000e+00  1.8817614384545936e-03 1.2573628789183137e-03 0.0000000000000000e+00  1.7912763861427671e-03 1.4849712804492774e-03 0.0000000000000000e+00  1.6104767735996204e-03 1.7361034865045781e-03 0.0000000000000000e+00  1.3436761878137212e-03 2.0095848257280884e-03 0.0000000000000000e+00  1.0001125008428056e-03 2.3040780668980910e-03 0.0000000000000000e+00  5.9464082537636427e-04 2.6180736140079437e-03 0.0000000000000000e+00  1.4848880418133459e-04 2.9498790820124141e-03 0.0000000000000000e+00  -3.0991703729185411e-04 3.2976086269628272e-03 0.0000000000000000e+00  -7.4404347865907473e-04 3.6591723145343912e-03 0.0000000000000000e+00  -1.1082487999265847e-03 4.0322657880612987e-03 0.0000000000000000e+00  -1.3466716588839108e-03 4.4143604988092560e-03 0.0000000000000000e+00  -1.3919916562308730e-03 4.8026947713664218e-03 0.0000000000000000e+00  -1.1640377651646323e-03 5.1942659882566727e-03 0.0000000000000000e+00  -5.6821443175384529e-04 5.5858241863700519e-03 0.0000000000000000e+00  5.0629328341836267e-04 5.9738673596679759e-03 0.0000000000000000e+00  2.1885853853124424e-03 6.3546387541362917e-03 0.0000000000000000e+00  4.6284483816554541e-03 6.7241264169065392e-03 0.0000000000000000e+00  7.9991778250173926e-03 7.0780652134809843e-03 0.0000000000000000e+00  1.2500935262651804e-02 7.4119414439300273e-03 0.0000000000000000e+00  1.8364791679978450e-02 7.7210000524640431e-03 0.0000000000000000e+00  2.5857664126009056e-02 8.0002542083148533e-03 0.0000000000000000e+00  3.5288430369648842e-02 8.2444966990841140e-03 0.0000000000000000e+00  4.7015620425869521e-02 8.4483120565673302e-03 0.0000000000000000e+00  6.1457253565615759e-02 8.6060875241438777e-03 0.0000000000000000e+00  7.9103648364759277e-02 8.7120196705189959e-03 0.0000000000000000e+00  1.0053443908736824e-01 8.7601112540993224e-03 0.0000000000000000e+00  1.2644168730880873e-01 8.7441491160353980e-03 0.0000000000000000e+00  1.5766207495580248e-01 8.6576479844217777e-03 0.0000000000000000e+00  1.9522307699354083e-01 8.4937427200508821e-03 0.0000000000000000e+00  2.4041149914089252e-01 8.2450543829352355e-03 0.0000000000000000e+00  2.9487940684507841e-01 7.9038306440948284e-03 0.0000000000000000e+00  3.6081482097982959e-01 7.4637079729509810e-03 0.0000000000000000e+00  4.4121521327733826e-01 6.9258418999736168e-03 0.0000000000000000e+00  0.0000000000000000e+00 7.2490997526433298e-04 0.0000000000000000e+00  4.3151049766061109e-04 7.5645760430989974e-04 0.0000000000000000e+00  8.4399120436747335e-04 8.4399120437215070e-04 0.0000000000000000e+00  1.2259727969390795e-03 9.8608399868321448e-04 0.0000000000000000e+00  1.5629286614773418e-03 1.1824943203552509e-03 0.0000000000000000e+00  1.8413597633487001e-03 1.4328193930186154e-03 0.0000000000000000e+00  2.0495054174803117e-03 1.7363386422941233e-03 0.0000000000000000e+00  2.1778075535881939e-03 2.0919903166860044e-03 0.0000000000000000e+00  2.2193685889684667e-03 2.4983875207375246e-03 0.0000000000000000e+00  2.1704457876791186e-03 2.9538318128480160e-03 0.0000000000000000e+00  2.0309891839371233e-03 3.4563153449291293e-03 0.0000000000000000e+00  1.8052259334904416e-03 4.0035134478580035e-03 0.0000000000000000e+00  1.5022951121735440e-03 4.5927709810316521e-03 0.0000000000000000e+00  1.1369385422526361e-03 5.2210849363772656e-03 0.0000000000000000e+00  7.3025468760376674e-04 5.8850849161958905e-03 0.0000000000000000e+00  3.1052416716564825e-04 6.5810125604119623e-03 0.0000000000000000e+00  -8.5882808305181538e-05 7.3047007150459651e-03 0.0000000000000000e+00  -4.1350457797602785e-04 8.0515530039997306e-03 0.0000000000000000e+00  -6.1667642643324855e-04 8.8165244172292035e-03 0.0000000000000000e+00  -6.2829021843509010e-04 9.5941035199635389e-03 0.0000000000000000e+00  -3.6840141681626615e-04 1.0378296895259893e-02 0.0000000000000000e+00  2.5734675211651321e-04 1.1162616444137951e-02 0.0000000000000000e+00  1.3595206637734218e-03 1.1940070173129287e-02 0.0000000000000000e+00  3.0669651086739805e-03 1.2703157090621203e-02 0.0000000000000000e+00  5.5292085504573445e-03 1.3443866802203462e-02 0.0000000000000000e+00  8.9192902451763895e-03 1.4153684329215984e-02 0.0000000000000000e+00  1.3437122604481462e-02 1.4823600558842423e-02 0.0000000000000000e+00  1.9313540983477682e-02 1.5444128545632126e-02 0.0000000000000000e+00  2.6815247695119730e-02 1.6005325592068978e-02 0.0000000000000000e+00  3.6250935227739145e-02 1.6496820594042925e-02 0.0000000000000000e+00  4.7978987605662375e-02 1.6907845478402482e-02 0.0000000000000000e+00  6.2417328425835250e-02 1.7227268586103652e-02 0.0000000000000000e+00  8.0056242374548198e-02 1.7443626427694314e-02 0.0000000000000000e+00  1.0147540069945382e-01 1.7545148244802251e-02 0.0000000000000000e+00  1.2736697089088475e-01 1.7519765503829353e-02 0.0000000000000000e+00  1.5856777266682881e-01 1.7355097565743358e-02 0.0000000000000000e+00  1.9610531578650789e-01 1.7038409839553265e-02 0.0000000000000000e+00  2.4126595084499614e-01 1.6556546933804449e-02 0.0000000000000000e+00  2.9569981851799843e-01 1.5895721536273152e-02 0.0000000000000000e+00  3.6158993453849786e-01 1.5039916916166048e-02 0.0000000000000000e+00  4.4193829757874342e-01 1.3960335137207788e-02 0.0000000000000000e+00  0.0000000000000000e+00 1.0522991549526339e-03 0.0000000000000000e+00  5.0250570753892869e-04 1.0968696131554866e-03 0.0000000000000000e+00  9.8608399868077654e-04 1.2259727969442275e-03 0.0000000000000000e+00  1.4381995980319885e-03 1.4381995980296501e-03 0.0000000000000000e+00  1.8449751109921645e-03 1.7326458912487765e-03 0.0000000000000000e+00  2.1931231825433081e-03 2.1083310089218018e-03 0.0000000000000000e+00  2.4709340645831727e-03 2.5639469940990853e-03 0.0000000000000000e+00  2.6688253175845243e-03 3.0977996616024287e-03 0.0000000000000000e+00  2.7798348348010591e-03 3.7077833533849342e-03 0.0000000000000000e+00  2.8001291218038805e-03 4.3913620597237531e-03 0.0000000000000000e+00  2.7295452079456745e-03 5.1455506971508774e-03 0.0000000000000000e+00  2.5721749049438373e-03 5.9668939177469384e-03 0.0000000000000000e+00  2.3369981152468518e-03 6.8514416737991100e-03 0.0000000000000000e+00  2.0385719264341558e-03 7.7947218269281459e-03 0.0000000000000000e+00  1.6977830155474106e-03 8.7917105561696011e-03 0.0000000000000000e+00  1.3426721144320099e-03 9.8368014628406747e-03 0.0000000000000000e+00  1.0093409343416137e-03 1.0923774288737750e-02 0.0000000000000000e+00  7.4295410554429844e-04 1.2045764156601973e-02 0.0000000000000000e+00  5.9885150737160530e-04 1.3195232241595321e-02 0.0000000000000000e+00  6.4379005644476053e-04 1.4363938796083922e-02 0.0000000000000000e+00  9.5733886764549133e-04 1.5542919471602495e-02 0.0000000000000000e+00  1.6334580860837948e-03 1.6722465904053810e-02 0.0000000000000000e+00  2.7823001332971842e-03 1.7892111541682579e-02 0.0000000000000000e+00  4.5322833514833873e-03 1.9040623690226001e-02 0.0000000000000000e+00  7.0325031062398631e-03 2.0156002714555778e-02 0.0000000000000000e+00  1.0455565823899726e-02 2.1225489256069447e-02 0.0000000000000000e+00  1.5000959396547610e-02 2.2235580179565780e-02 0.0000000000000000e+00  2.0899112170292389e-02 2.3172053723866340e-02 0.0000000000000000e+00  2.8416347325296357e-02 2.4020003955049822e-02 0.0000000000000000e+00  3.7861017574930073e-02 2.4763884049063684e-02 0.0000000000000000e+00  4.9591218955974549e-02 2.5387557069544479e-02 0.0000000000000000e+00  6.4024651810825728e-02 2.5874351617117871e-02 0.0000000000000000e+00  8.1651454760201692e-02 2.6207117785866683e-02 0.0000000000000000e+00  1.0305123997197653e-01 2.6368275872687540e-02 0.0000000000000000e+00  1.2891620570623083e-01 2.6339845270924072e-02 0.0000000000000000e+00  1.6008328062489849e-01 2.6103430435314136e-02 0.0000000000000000e+00  1.9758012193210625e-01 2.5640110068328482e-02 0.0000000000000000e+00  2.4269316377498418e-01 2.4930066929201005e-02 0.0000000000000000e+00  2.9707226360654626e-01 2.3951418240904281e-02 0.0000000000000000e+00  3.6289886833499513e-01 2.2676614871450975e-02 0.0000000000000000e+00  4.4317022731017891e-01 2.1062708846727802e-02 0.0000000000000000e+00  0.0000000000000000e+00 1.3340755869108568e-03 0.0000000000000000e+00  6.0032773646649044e-04 1.3922615432620709e-03 0.0000000000000000e+00  1.1824943203537408e-03 1.5629286614756658e-03 0.0000000000000000e+00  1.7326458912491889e-03 1.8449751109913025e-03 0.0000000000000000e+00  2.2371237296081223e-03 2.2371237296075295e-03 0.0000000000000000e+00  2.6828032404377375e-03 2.7379179776865921e-03 0.0000000000000000e+00  3.0580219850514928e-03 3.3455088836692221e-03 0.0000000000000000e+00  3.3531762865559511e-03 4.0575767299348732e-03 0.0000000000000000e+00  3.5612363670939999e-03 4.8712896212694578e-03 0.0000000000000000e+00  3.6782626590143889e-03 5.7832701713159797e-03 0.0000000000000000e+00  3.7039503330962508e-03 6.7895622474865381e-03 0.0000000000000000e+00  3.6422137328598653e-03 7.8855957554846388e-03 0.0000000000000000e+00  3.5018187096320175e-03 9.0661490550504476e-03 0.0000000000000000e+00  3.2970703231405781e-03 1.0325309151341151e-02 0.0000000000000000e+00  3.0485638868007268e-03 1.1656430128841435e-02 0.0000000000000000e+00  2.7840084058890521e-03 1.3052090529411661e-02 0.0000000000000000e+00  2.5391330095695416e-03 1.4504050546567629e-02 0.0000000000000000e+00  2.3586890813439960e-03 1.6003210033095482e-02 0.0000000000000000e+00  2.2975635829211843e-03 1.7539568414039072e-02 0.0000000000000000e+00  2.4220227444873891e-03 1.9102187674914343e-02 0.0000000000000000e+00  2.8111101343310865e-03 2.0679159659047118e-02 0.0000000000000000e+00  3.5582295005928796e-03 2.2257578958836940e-02 0.0000000000000000e+00  4.7729512194826613e-03 2.3823522716859388e-02 0.0000000000000000e+00  6.5830924193947581e-03 2.5362038656377092e-02 0.0000000000000000e+00  9.1371359177829358e-03 2.6857142622725441e-02 0.0000000000000000e+00  1.2607073508516602e-02 2.8291826819696480e-02 0.0000000000000000e+00  1.7191787071189922e-02 2.9648079741016253e-02 0.0000000000000000e+00  2.3121119720680337e-02 3.0906918487830101e-02 0.0000000000000000e+00  3.0660843754026668e-02 3.2048433669776888e-02 0.0000000000000000e+00  4.0118810186350759e-02 3.3051846320162143e-02 0.0000000000000000e+00  5.1852678376486973e-02 3.3895575068011330e-02 0.0000000000000000e+00  6.6279793346721863e-02 3.4557309950600724e-02 0.0000000000000000e+00  8.3890035709309613e-02 3.5014086231994167e-02 0.0000000000000000e+00  1.0526287090924792e-01 3.5242346335740339e-02 0.0000000000000000e+00  1.3109047063073517e-01 3.5217967778961724e-02 0.0000000000000000e+00  1.6220985327400675e-01 3.4916212485751434e-02 0.0000000000000000e+00  1.9964884223531373e-01 3.4311498831259828e-02 0.0000000000000000e+00  2.4469396104876440e-01 3.3376768243363546e-02 0.0000000000000000e+00  2.9899459447233478e-01 3.2081945476561451e-02 0.0000000000000000e+00  3.6472999914867948e-01 3.0390611255355887e-02 0.0000000000000000e+00  4.4489229882701720e-01 2.8254226474147114e-02 0.0000000000000000e+00  0.0000000000000000e+00 1.5569782905042330e-03 0.0000000000000000e+00  7.2514406447287262e-04 1.6290009619694492e-03 0.0000000000000000e+00  1.4328193930174887e-03 1.8413597633474936e-03 0.0000000000000000e+00  2.1083310089217854e-03 2.1931231825410534e-03 0.0000000000000000e+00  2.7379179776874487e-03 2.6828032404340512e-03 0.0000000000000000e+00  3.3085428042437114e-03 3.3085428042382769e-03 0.0000000000000000e+00  3.8085716346630506e-03 4.0679991763465434e-03 0.0000000000000000e+00  4.2283691851566019e-03 4.9582624515063121e-03 0.0000000000000000e+00  4.5608242156501529e-03 5.9758033821631276e-03 0.0000000000000000e+00  4.8018703637194944e-03 7.1164291412961315e-03 0.0000000000000000e+00  4.9510311805886801e-03 8.3752389631936586e-03 0.0000000000000000e+00  5.0120032708306402e-03 9.7465772948541179e-03 0.0000000000000000e+00  4.9932866912367020e-03 1.1223984053214606e-02 0.0000000000000000e+00  4.9088706424071440e-03 1.2800142307947801e-02 0.0000000000000000e+00  4.7789827576826460e-03 1.4466824030714531e-02 0.0000000000000000e+00  4.6309112655942963e-03 1.6214834750401759e-02 0.0000000000000000e+00  4.4999108119186376e-03 1.8033958115160467e-02 0.0000000000000000e+00  4.4302048079851077e-03 1.9912901507527458e-02 0.0000000000000000e+00  4.4760999488240938e-03 2.1839243991595970e-02 0.0000000000000000e+00  4.7032322132989140e-03 2.3799387989237634e-02 0.0000000000000000e+00  5.1899684921607450e-03 2.5778516185024986e-02 0.0000000000000000e+00  6.0289943632446611e-03 2.7760555240257962e-02 0.0000000000000000e+00  7.3291269681180190e-03 2.9728147950859485e-02 0.0000000000000000e+00  9.2174031683844027e-03 3.1662635499049088e-02 0.0000000000000000e+00  1.1841508211782469e-02 3.3544051410446800e-02 0.0000000000000000e+00  1.5372630514116076e-02 3.5351128712825482e-02 0.0000000000000000e+00  2.0008856059102693e-02 3.7061321566099696e-02 0.0000000000000000e+00  2.5979254608982944e-02 3.8650842244881023e-02 0.0000000000000000e+00  3.3548864374024476e-02 4.0094713725236347e-02 0.0000000000000000e+00  4.3024859699520364e-02 4.1366837131633132e-02 0.0000000000000000e+00  5.4764299847526600e-02 4.2440071726761799e-02 0.0000000000000000e+00  6.9184025741470673e-02 4.3286322600857373e-02 0.0000000000000000e+00  8.6773528268968780e-02 4.3876627014263585e-02 0.0000000000000000e+00  1.0811201227944715e-01 4.4181222967982360e-02 0.0000000000000000e+00  1.3389152346572755e-01 4.4169569817538577e-02 0.0000000000000000e+00  1.6494907137509901e-01 4.3810263917956602e-02 0.0000000000000000e+00  2.0231251392738939e-01 4.3070740056595551e-02 0.0000000000000000e+00  2.4726825052055940e-01 4.1916555786841482e-02 0.0000000000000000e+00  3.0146495577638321e-01 4.0309923913790388e-02 0.0000000000000000e+00  3.6708008334740727e-01 3.8207083520409919e-02 0.0000000000000000e+00  4.4710379240676046e-01 3.5554330453519370e-02 0.0000000000000000e+00  0.0000000000000000e+00 1.7094481795279874e-03 0.0000000000000000e+00  8.7665175213943471e-04 1.7953763510099848e-03 0.0000000000000000e+00  1.7363386422911840e-03 2.0495054174827125e-03 0.0000000000000000e+00  2.5639469940941873e-03 2.4709340645790697e-03 0.0000000000000000e+00  3.3455088836672050e-03 3.0580219850483768e-03 0.0000000000000000e+00  4.0679991763453742e-03 3.8085716346560497e-03 0.0000000000000000e+00  4.7197898470159863e-03 4.7197898470158935e-03 0.0000000000000000e+00  5.2912025467025817e-03 5.7882155965791491e-03 0.0000000000000000e+00  5.7750311095518926e-03 7.0096611045954967e-03 0.0000000000000000e+00  6.1670624502719656e-03 8.3791580056239053e-03 0.0000000000000000e+00  6.4666201083981812e-03 9.8909025789997006e-03 0.0000000000000000e+00  6.6771447830872481e-03 1.1538197793028886e-02 0.0000000000000000e+00  6.8068217366646444e-03 1.3313391736402126e-02 0.0000000000000000e+00  6.8692635972130399e-03 1.5207812813277901e-02 0.0000000000000000e+00  6.8842571864879314e-03 1.7211702470105877e-02 0.0000000000000000e+00  6.8785838781905782e-03 1.9314146459213918e-02 0.0000000000000000e+00  6.8869244594644439e-03 2.1503005825360987e-02 0.0000000000000000e+00  6.9528615315382746e-03 2.3764848962454250e-02 0.0000000000000000e+00  7.1299952562260144e-03 2.6084886238463129e-02 0.0000000000000000e+00  7.4831919209906892e-03 2.8446908827619275e-02 0.0000000000000000e+00  8.0899896264391251e-03 3.0833233516678528e-02 0.0000000000000000e+00  9.0421917698142069e-03 3.3224655357044698e-02 0.0000000000000000e+00  1.0447687424903875e-02 3.5600410109262140e-02 0.0000000000000000e+00  1.2432548929930126e-02 3.7938148454838241e-02 0.0000000000000000e+00  1.5143472024996781e-02 4.0213923914155833e-02 0.0000000000000000e+00  1.8750644222402555e-02 4.2402196279279707e-02 0.0000000000000000e+00  2.3451154936771121e-02 4.4475852105960438e-02 0.0000000000000000e+00  2.9473099513090323e-02 4.6406243346045414e-02 0.0000000000000000e+00  3.7080583626946204e-02 4.8163244443000491e-02 0.0000000000000000e+00  4.6579912261363356e-02 4.9715327002055706e-02 0.0000000000000000e+00  5.8327360702594803e-02 5.1029649223149870e-02 0.0000000000000000e+00  7.2739093319474840e-02 5.2072154200093396e-02 0.0000000000000000e+00  9.0304051760995624e-02 5.2807666143080211e-02 0.0000000000000000e+00  1.1160103303591581e-01 5.3199965105159668e-02 0.0000000000000000e+00  1.3732181745745026e-01 5.3211806253629819e-02 0.0000000000000000e+00  1.6830326560947301e-01 5.2804824747705668e-02 0.0000000000000000e+00  2.0557312498703945e-01 5.1939225939192452e-02 0.0000000000000000e+00  2.5041756438505114e-01 5.0573098434772257e-02 0.00000000