<?xml version="1.0"?>
<VTKFile type="UnstructuredGrid"  version="0.1"  >
<UnstructuredGrid>
<Piece  NumberOfPoints="1681" NumberOfCells="3200">
<Points>
<DataArray  type="Float64"  NumberOfComponents="3"  format="ascii">0 0 0  0.5 0 0  1 0 0  1.5 0 0  2 0 0  2.5 0 0  3 0 0  3.5 0 0  4 0 0  4.5 0 0  5 0 0  5.5 0 0  6 0 0  6.5 0 0  7 0 0  7.5 0 0  8 0 0  8.5 0 0  9 0 0  9.5 0 0  10 0 0  10.5 0 0  11 0 0  11.5 0 0  12 0 0  12.5 0 0  13 0 0  13.5 0 0  14 0 0  14.5 0 0  15 0 0  15.5 0 0  16 0 0  16.5 0 0  17 0 0  17.5 0 0  18 0 0  18.5 0 0  19 0 0  19.5 0 0  20 0 0  0 0.5 0  0.5 0.5 0  1 0.5 0  1.5 0.5 0  2 0.5 0  2.5 0.5 0  3 0.5 0  3.5 0.5 0  4 0.5 0  4.5 0.5 0  5 0.5 0  5.5 0.5 0  6 0.5 0  6.5 0.5 0  7 0.5 0  7.5 0.5 0  8 0.5 0  8.5 0.5 0  9 0.5 0  9.5 0.5 0  10 0.5 0  10.5 0.5 0  11 0.5 0  11.5 0.5 0  12 0.5 0  12.5 0.5 0  13 0.5 0  13.5 0.5 0  14 0.5 0  14.5 0.5 0  15 0.5 0  15.5 0.5 0  16 0.5 0  16.5 0.5 0  17 0.5 0  17.5 0.5 0  18 0.5 0  18.5 0.5 0  19 0.5 0  19.5 0.5 0  20 0.5 0  0 1 0  0.5 1 0  1 1 0  1.5 1 0  2 1 0  2.5 1 0  3 1 0  3.5 1 0  4 1 0  4.5 1 0  5 1 0  5.5 1 0  6 1 0  6.5 1 0  7 1 0  7.5 1 0  8 1 0  8.5 1 0  9 1 0  9.5 1 0  10 1 0  10.5 1 0  11 1 0  11.5 1 0  12 1 0  12.5 1 0  13 1 0  13.5 1 0  14 1 0  14.5 1 0  15 1 0  15.5 1 0  16 1 0  16.5 1 0  17 1 0  17.5 1 0  18 1 0  18.5 1 0  19 1 0  19.5 1 0  20 1 0  0 1.5 0  0.5 1.5 0  1 1.5 0  1.5 1.5 0  2 1.5 0  2.5 1.5 0  3 1.5 0  3.5 1.5 0  4 1.5 0  4.5 1.5 0  5 1.5 0  5.5 1.5 0  6 1.5 0  6.5 1.5 0  7 1.5 0  7.5 1.5 0  8 1.5 0  8.5 1.5 0  9 1.5 0  9.5 1.5 0  10 1.5 0  10.5 1.5 0  11 1.5 0  11.5 1.5 0  12 1.5 0  12.5 1.5 0  13 1.5 0  13.5 1.5 0  14 1.5 0  14.5 1.5 0  15 1.5 0  15.5 1.5 0  16 1.5 0  16.5 1.5 0  17 1.5 0  17.5 1.5 0  18 1.5 0  18.5 1.5 0  19 1.5 0  19.5 1.5 0  20 1.5 0  0 2 0  0.5 2 0  1 2 0  1.5 2 0  2 2 0  2.5 2 0  3 2 0  3.5 2 0  4 2 0  4.5 2 0  5 2 0  5.5 2 0  6 2 0  6.5 2 0  7 2 0  7.5 2 0  8 2 0  8.5 2 0  9 2 0  9.5 2 0  10 2 0  10.5 2 0  11 2 0  11.5 2 0  12 2 0  12.5 2 0  13 2 0  13.5 2 0  14 2 0  14.5 2 0  15 2 0  15.5 2 0  16 2 0  16.5 2 0  17 2 0  17.5 2 0  18 2 0  18.5 2 0  19 2 0  19.5 2 0  20 2 0  0 2.5 0  0.5 2.5 0  1 2.5 0  1.5 2.5 0  2 2.5 0  2.5 2.5 0  3 2.5 0  3.5 2.5 0  4 2.5 0  4.5 2.5 0  5 2.5 0  5.5 2.5 0  6 2.5 0  6.5 2.5 0  7 2.5 0  7.5 2.5 0  8 2.5 0  8.5 2.5 0  9 2.5 0  9.5 2.5 0  10 2.5 0  10.5 2.5 0  11 2.5 0  11.5 2.5 0  12 2.5 0  12.5 2.5 0  13 2.5 0  13.5 2.5 0  14 2.5 0  14.5 2.5 0  15 2.5 0  15.5 2.5 0  16 2.5 0  16.5 2.5 0  17 2.5 0  17.5 2.5 0  18 2.5 0  18.5 2.5 0  19 2.5 0  19.5 2.5 0  20 2.5 0  0 3 0  0.5 3 0  1 3 0  1.5 3 0  2 3 0  2.5 3 0  3 3 0  3.5 3 0  4 3 0  4.5 3 0  5 3 0  5.5 3 0  6 3 0  6.5 3 0  7 3 0  7.5 3 0  8 3 0  8.5 3 0  9 3 0  9.5 3 0  10 3 0  10.5 3 0  11 3 0  11.5 3 0  12 3 0  12.5 3 0  13 3 0  13.5 3 0  14 3 0  14.5 3 0  15 3 0  15.5 3 0  16 3 0  16.5 3 0  17 3 0  17.5 3 0  18 3 0  18.5 3 0  19 3 0  19.5 3 0  20 3 0  0 3.5 0  0.5 3.5 0  1 3.5 0  1.5 3.5 0  2 3.5 0  2.5 3.5 0  3 3.5 0  3.5 3.5 0  4 3.5 0  4.5 3.5 0  5 3.5 0  5.5 3.5 0  6 3.5 0  6.5 3.5 0  7 3.5 0  7.5 3.5 0  8 3.5 0  8.5 3.5 0  9 3.5 0  9.5 3.5 0  10 3.5 0  10.5 3.5 0  11 3.5 0  11.5 3.5 0  12 3.5 0  12.5 3.5 0  13 3.5 0  13.5 3.5 0  14 3.5 0  14.5 3.5 0  15 3.5 0  15.5 3.5 0  16 3.5 0  16.5 3.5 0  17 3.5 0  17.5 3.5 0  18 3.5 0  18.5 3.5 0  19 3.5 0  19.5 3.5 0  20 3.5 0  0 4 0  0.5 4 0  1 4 0  1.5 4 0  2 4 0  2.5 4 0  3 4 0  3.5 4 0  4 4 0  4.5 4 0  5 4 0  5.5 4 0  6 4 0  6.5 4 0  7 4 0  7.5 4 0  8 4 0  8.5 4 0  9 4 0  9.5 4 0  10 4 0  10.5 4 0  11 4 0  11.5 4 0  12 4 0  12.5 4 0  13 4 0  13.5 4 0  14 4 0  14.5 4 0  15 4 0  15.5 4 0  16 4 0  16.5 4 0  17 4 0  17.5 4 0  18 4 0  18.5 4 0  19 4 0  19.5 4 0  20 4 0  0 4.5 0  0.5 4.5 0  1 4.5 0  1.5 4.5 0  2 4.5 0  2.5 4.5 0  3 4.5 0  3.5 4.5 0  4 4.5 0  4.5 4.5 0  5 4.5 0  5.5 4.5 0  6 4.5 0  6.5 4.5 0  7 4.5 0  7.5 4.5 0  8 4.5 0  8.5 4.5 0  9 4.5 0  9.5 4.5 0  10 4.5 0  10.5 4.5 0  11 4.5 0  11.5 4.5 0  12 4.5 0  12.5 4.5 0  13 4.5 0  13.5 4.5 0  14 4.5 0  14.5 4.5 0  15 4.5 0  15.5 4.5 0  16 4.5 0  16.5 4.5 0  17 4.5 0  17.5 4.5 0  18 4.5 0  18.5 4.5 0  19 4.5 0  19.5 4.5 0  20 4.5 0  0 5 0  0.5 5 0  1 5 0  1.5 5 0  2 5 0  2.5 5 0  3 5 0  3.5 5 0  4 5 0  4.5 5 0  5 5 0  5.5 5 0  6 5 0  6.5 5 0  7 5 0  7.5 5 0  8 5 0  8.5 5 0  9 5 0  9.5 5 0  10 5 0  10.5 5 0  11 5 0  11.5 5 0  12 5 0  12.5 5 0  13 5 0  13.5 5 0  14 5 0  14.5 5 0  15 5 0  15.5 5 0  16 5 0  16.5 5 0  17 5 0  17.5 5 0  18 5 0  18.5 5 0  19 5 0  19.5 5 0  20 5 0  0 5.5 0  0.5 5.5 0  1 5.5 0  1.5 5.5 0  2 5.5 0  2.5 5.5 0  3 5.5 0  3.5 5.5 0  4 5.5 0  4.5 5.5 0  5 5.5 0  5.5 5.5 0  6 5.5 0  6.5 5.5 0  7 5.5 0  7.5 5.5 0  8 5.5 0  8.5 5.5 0  9 5.5 0  9.5 5.5 0  10 5.5 0  10.5 5.5 0  11 5.5 0  11.5 5.5 0  12 5.5 0  12.5 5.5 0  13 5.5 0  13.5 5.5 0  14 5.5 0  14.5 5.5 0  15 5.5 0  15.5 5.5 0  16 5.5 0  16.5 5.5 0  17 5.5 0  17.5 5.5 0  18 5.5 0  18.5 5.5 0  19 5.5 0  19.5 5.5 0  20 5.5 0  0 6 0  0.5 6 0  1 6 0  1.5 6 0  2 6 0  2.5 6 0  3 6 0  3.5 6 0  4 6 0  4.5 6 0  5 6 0  5.5 6 0  6 6 0  6.5 6 0  7 6 0  7.5 6 0  8 6 0  8.5 6 0  9 6 0  9.5 6 0  10 6 0  10.5 6 0  11 6 0  11.5 6 0  12 6 0  12.5 6 0  13 6 0  13.5 6 0  14 6 0  14.5 6 0  15 6 0  15.5 6 0  16 6 0  16.5 6 0  17 6 0  17.5 6 0  18 6 0  18.5 6 0  19 6 0  19.5 6 0  20 6 0  0 6.5 0  0.5 6.5 0  1 6.5 0  1.5 6.5 0  2 6.5 0  2.5 6.5 0  3 6.5 0  3.5 6.5 0  4 6.5 0  4.5 6.5 0  5 6.5 0  5.5 6.5 0  6 6.5 0  6.5 6.5 0  7 6.5 0  7.5 6.5 0  8 6.5 0  8.5 6.5 0  9 6.5 0  9.5 6.5 0  10 6.5 0  10.5 6.5 0  11 6.5 0  11.5 6.5 0  12 6.5 0  12.5 6.5 0  13 6.5 0  13.5 6.5 0  14 6.5 0  14.5 6.5 0  15 6.5 0  15.5 6.5 0  16 6.5 0  16.5 6.5 0  17 6.5 0  17.5 6.5 0  18 6.5 0  18.5 6.5 0  19 6.5 0  19.5 6.5 0  20 6.5 0  0 7 0  0.5 7 0  1 7 0  1.5 7 0  2 7 0  2.5 7 0  3 7 0  3.5 7 0  4 7 0  4.5 7 0  5 7 0  5.5 7 0  6 7 0  6.5 7 0  7 7 0  7.5 7 0  8 7 0  8.5 7 0  9 7 0  9.5 7 0  10 7 0  10.5 7 0  11 7 0  11.5 7 0  12 7 0  12.5 7 0  13 7 0  13.5 7 0  14 7 0  14.5 7 0  15 7 0  15.5 7 0  16 7 0  16.5 7 0  17 7 0  17.5 7 0  18 7 0  18.5 7 0  19 7 0  19.5 7 0  20 7 0  0 7.5 0  0.5 7.5 0  1 7.5 0  1.5 7.5 0  2 7.5 0  2.5 7.5 0  3 7.5 0  3.5 7.5 0  4 7.5 0  4.5 7.5 0  5 7.5 0  5.5 7.5 0  6 7.5 0  6.5 7.5 0  7 7.5 0  7.5 7.5 0  8 7.5 0  8.5 7.5 0  9 7.5 0  9.5 7.5 0  10 7.5 0  10.5 7.5 0  11 7.5 0  11.5 7.5 0  12 7.5 0  12.5 7.5 0  13 7.5 0  13.5 7.5 0  14 7.5 0  14.5 7.5 0  15 7.5 0  15.5 7.5 0  16 7.5 0  16.5 7.5 0  17 7.5 0  17.5 7.5 0  18 7.5 0  18.5 7.5 0  19 7.5 0  19.5 7.5 0  20 7.5 0  0 8 0  0.5 8 0  1 8 0  1.5 8 0  2 8 0  2.5 8 0  3 8 0  3.5 8 0  4 8 0  4.5 8 0  5 8 0  5.5 8 0  6 8 0  6.5 8 0  7 8 0  7.5 8 0  8 8 0  8.5 8 0  9 8 0  9.5 8 0  10 8 0  10.5 8 0  11 8 0  11.5 8 0  12 8 0  12.5 8 0  13 8 0  13.5 8 0  14 8 0  14.5 8 0  15 8 0  15.5 8 0  16 8 0  16.5 8 0  17 8 0  17.5 8 0  18 8 0  18.5 8 0  19 8 0  19.5 8 0  20 8 0  0 8.5 0  0.5 8.5 0  1 8.5 0  1.5 8.5 0  2 8.5 0  2.5 8.5 0  3 8.5 0  3.5 8.5 0  4 8.5 0  4.5 8.5 0  5 8.5 0  5.5 8.5 0  6 8.5 0  6.5 8.5 0  7 8.5 0  7.5 8.5 0  8 8.5 0  8.5 8.5 0  9 8.5 0  9.5 8.5 0  10 8.5 0  10.5 8.5 0  11 8.5 0  11.5 8.5 0  12 8.5 0  12.5 8.5 0  13 8.5 0  13.5 8.5 0  14 8.5 0  14.5 8.5 0  15 8.5 0  15.5 8.5 0  16 8.5 0  16.5 8.5 0  17 8.5 0  17.5 8.5 0  18 8.5 0  18.5 8.5 0  19 8.5 0  19.5 8.5 0  20 8.5 0  0 9 0  0.5 9 0  1 9 0  1.5 9 0  2 9 0  2.5 9 0  3 9 0  3.5 9 0  4 9 0  4.5 9 0  5 9 0  5.5 9 0  6 9 0  6.5 9 0  7 9 0  7.5 9 0  8 9 0  8.5 9 0  9 9 0  9.5 9 0  10 9 0  10.5 9 0  11 9 0  11.5 9 0  12 9 0  12.5 9 0  13 9 0  13.5 9 0  14 9 0  14.5 9 0  15 9 0  15.5 9 0  16 9 0  16.5 9 0  17 9 0  17.5 9 0  18 9 0  18.5 9 0  19 9 0  19.5 9 0  20 9 0  0 9.5 0  0.5 9.5 0  1 9.5 0  1.5 9.5 0  2 9.5 0  2.5 9.5 0  3 9.5 0  3.5 9.5 0  4 9.5 0  4.5 9.5 0  5 9.5 0  5.5 9.5 0  6 9.5 0  6.5 9.5 0  7 9.5 0  7.5 9.5 0  8 9.5 0  8.5 9.5 0  9 9.5 0  9.5 9.5 0  10 9.5 0  10.5 9.5 0  11 9.5 0  11.5 9.5 0  12 9.5 0  12.5 9.5 0  13 9.5 0  13.5 9.5 0  14 9.5 0  14.5 9.5 0  15 9.5 0  15.5 9.5 0  16 9.5 0  16.5 9.5 0  17 9.5 0  17.5 9.5 0  18 9.5 0  18.5 9.5 0  19 9.5 0  19.5 9.5 0  20 9.5 0  0 10 0  0.5 10 0  1 10 0  1.5 10 0  2 10 0  2.5 10 0  3 10 0  3.5 10 0  4 10 0  4.5 10 0  5 10 0  5.5 10 0  6 10 0  6.5 10 0  7 10 0  7.5 10 0  8 10 0  8.5 10 0  9 10 0  9.5 10 0  10 10 0  10.5 10 0  11 10 0  11.5 10 0  12 10 0  12.5 10 0  13 10 0  13.5 10 0  14 10 0  14.5 10 0  15 10 0  15.5 10 0  16 10 0  16.5 10 0  17 10 0  17.5 10 0  18 10 0  18.5 10 0  19 10 0  19.5 10 0  20 10 0  0 10.5 0  0.5 10.5 0  1 10.5 0  1.5 10.5 0  2 10.5 0  2.5 10.5 0  3 10.5 0  3.5 10.5 0  4 10.5 0  4.5 10.5 0  5 10.5 0  5.5 10.5 0  6 10.5 0  6.5 10.5 0  7 10.5 0  7.5 10.5 0  8 10.5 0  8.5 10.5 0  9 10.5 0  9.5 10.5 0  10 10.5 0  10.5 10.5 0  11 10.5 0  11.5 10.5 0  12 10.5 0  12.5 10.5 0  13 10.5 0  13.5 10.5 0  14 10.5 0  14.5 10.5 0  15 10.5 0  15.5 10.5 0  16 10.5 0  16.5 10.5 0  17 10.5 0  17.5 10.5 0  18 10.5 0  18.5 10.5 0  19 10.5 0  19.5 10.5 0  20 10.5 0  0 11 0  0.5 11 0  1 11 0  1.5 11 0  2 11 0  2.5 11 0  3 11 0  3.5 11 0  4 11 0  4.5 11 0  5 11 0  5.5 11 0  6 11 0  6.5 11 0  7 11 0  7.5 11 0  8 11 0  8.5 11 0  9 11 0  9.5 11 0  10 11 0  10.5 11 0  11 11 0  11.5 11 0  12 11 0  12.5 11 0  13 11 0  13.5 11 0  14 11 0  14.5 11 0  15 11 0  15.5 11 0  16 11 0  16.5 11 0  17 11 0  17.5 11 0  18 11 0  18.5 11 0  19 11 0  19.5 11 0  20 11 0  0 11.5 0  0.5 11.5 0  1 11.5 0  1.5 11.5 0  2 11.5 0  2.5 11.5 0  3 11.5 0  3.5 11.5 0  4 11.5 0  4.5 11.5 0  5 11.5 0  5.5 11.5 0  6 11.5 0  6.5 11.5 0  7 11.5 0  7.5 11.5 0  8 11.5 0  8.5 11.5 0  9 11.5 0  9.5 11.5 0  10 11.5 0  10.5 11.5 0  11 11.5 0  11.5 11.5 0  12 11.5 0  12.5 11.5 0  13 11.5 0  13.5 11.5 0  14 11.5 0  14.5 11.5 0  15 11.5 0  15.5 11.5 0  16 11.5 0  16.5 11.5 0  17 11.5 0  17.5 11.5 0  18 11.5 0  18.5 11.5 0  19 11.5 0  19.5 11.5 0  20 11.5 0  0 12 0  0.5 12 0  1 12 0  1.5 12 0  2 12 0  2.5 12 0  3 12 0  3.5 12 0  4 12 0  4.5 12 0  5 12 0  5.5 12 0  6 12 0  6.5 12 0  7 12 0  7.5 12 0  8 12 0  8.5 12 0  9 12 0  9.5 12 0  10 12 0  10.5 12 0  11 12 0  11.5 12 0  12 12 0  12.5 12 0  13 12 0  13.5 12 0  14 12 0  14.5 12 0  
[...]
<PointData  Vectors="f_2975-0"> 
<DataArray  type="Float64"  Name="f_2975-0"  NumberOfComponents="3" format="ascii">0.0000000000000000e+00 0.0000000000000000e+00 0.0000000000000000e+00  -9.4934824897453476e-07 0.0000000000000000e+00 0.0000000000000000e+00  -4.2562207515870705e-06 0.0000000000000000e+00 0.0000000000000000e+00  -1.3295946058738369e-05 0.0000000000000000e+00 0.0000000000000000e+00  -3.0928592815901517e-05 0.0000000000000000e+00 0.0000000000000000e+00  -5.9942226452392052e-05 0.0000000000000000e+00 0.0000000000000000e+00  -1.0306906264224192e-04 0.0000000000000000e+00 0.0000000000000000e+00  -1.6296834012744229e-04 0.0000000000000000e+00 0.0000000000000000e+00  -2.4220566756403368e-04 0.0000000000000000e+00 0.0000000000000000e+00  -3.4322952975535695e-04 0.0000000000000000e+00 0.0000000000000000e+00  -4.6834368400064115e-04 0.0000000000000000e+00 0.0000000000000000e+00  -6.1967394019127027e-04 0.0000000000000000e+00 0.0000000000000000e+00  -7.9912744600073825e-04 0.0000000000000000e+00 0.0000000000000000e+00  -1.0083420241096624e-03 0.0000000000000000e+00 0.0000000000000000e+00  -1.2486223275366708e-03 0.0000000000000000e+00 0.0000000000000000e+00  -1.5208585615374018e-03 0.0000000000000000e+00 0.0000000000000000e+00  -1.8254222214179590e-03 0.0000000000000000e+00 0.0000000000000000e+00  -2.1620316679151893e-03 0.0000000000000000e+00 0.0000000000000000e+00  -2.5295783627333622e-03 0.0000000000000000e+00 0.0000000000000000e+00  -2.9259021839620511e-03 0.0000000000000000e+00 0.0000000000000000e+00  -3.3475014231511956e-03 0.0000000000000000e+00 0.0000000000000000e+00  -3.7891598512119840e-03 0.0000000000000000e+00 0.0000000000000000e+00  -4.2434696875323207e-03 0.0000000000000000e+00 0.0000000000000000e+00  -4.7002255228053456e-03 0.0000000000000000e+00 0.0000000000000000e+00  -5.1456603841210612e-03 0.0000000000000000e+00 0.0000000000000000e+00  -5.5614913821912951e-03 0.0000000000000000e+00 0.0000000000000000e+00  -5.9237389416627500e-03 0.0000000000000000e+00 0.0000000000000000e+00  -6.2012806353051010e-03 0.0000000000000000e+00 0.0000000000000000e+00  -6.3540981365778721e-03 0.0000000000000000e+00 0.0000000000000000e+00  -6.3311735374810283e-03 0.0000000000000000e+00 0.0000000000000000e+00  -6.0679886125030247e-03 0.0000000000000000e+00 0.0000000000000000e+00  -5.4835763239709191e-03 0.0000000000000000e+00 0.0000000000000000e+00  -4.4770659410303072e-03 0.0000000000000000e+00 0.0000000000000000e+00  -2.9236484914927246e-03 0.0000000000000000e+00 0.0000000000000000e+00  -6.6986330147228640e-04 0.0000000000000000e+00 0.0000000000000000e+00  2.4719378165191271e-03 0.0000000000000000e+00 0.0000000000000000e+00  6.7301661357906748e-03 0.0000000000000000e+00 0.0000000000000000e+00  1.2381957087781160e-02 0.0000000000000000e+00 0.0000000000000000e+00  1.9763125493254329e-02 0.0000000000000000e+00 0.0000000000000000e+00  2.9281532733534340e-02 0.0000000000000000e+00 0.0000000000000000e+00  4.1438990314999605e-02 0.0000000000000000e+00 0.0000000000000000e+00  0.0000000000000000e+00 -9.4934825513039901e-07 0.0000000000000000e+00  9.6384517324445694e-07 9.6384517072556328e-07 0.0000000000000000e+00  -1.0525956205222929e-06 5.5279546171260058e-06 0.0000000000000000e+00  -8.7266544028149188e-06 1.2779980743395515e-05 0.0000000000000000e+00  -2.4946411988270760e-05 2.2800158998151856e-05 0.0000000000000000e+00  -5.2530098686481303e-05 3.5591254312212685e-05 0.0000000000000000e+00  -9.4222457433864801e-05 5.1112431888087076e-05 0.0000000000000000e+00  -1.5268845825544303e-04 6.9298159462627130e-05 0.0000000000000000e+00  -2.3049739325661068e-04 9.0064423152260421e-05 0.0000000000000000e+00  -3.3010108891614627e-04 1.1331001409926372e-04 0.0000000000000000e+00  -4.5380695213335329e-04 1.3891611772890344e-04 0.0000000000000000e+00  -6.0374503208508691e-04 1.6674531270816572e-04 0.0000000000000000e+00  -7.8182744359636170e-04 1.9664035919220548e-04 0.0000000000000000e+00  -9.8969777378149905e-04 2.2842292879308207e-04 0.0000000000000000e+00  -1.2286672640814244e-03 2.6189236192054248e-04 0.0000000000000000e+00  -1.4996335242812501e-03 2.9682452135997483e-04 0.0000000000000000e+00  -1.8029762288540052e-03 3.3297080999624519e-04 0.0000000000000000e+00  -2.1384226152472256e-03 3.7005742535264387e-04 0.0000000000000000e+00  -2.5048736031937674e-03 4.0778492984238892e-04 0.0000000000000000e+00  -2.9001789509927548e-03 4.4582822156751775e-04 0.0000000000000000e+00  -3.3208470472143319e-03 4.8383699495613698e-04 0.0000000000000000e+00  -3.7616717226017166e-03 5.2143678196765709e-04 0.0000000000000000e+00  -4.2152549161715890e-03 5.5823066200862549e-04 0.0000000000000000e+00  -4.6714002473198339e-03 5.9380171998620686e-04 0.0000000000000000e+00  -5.1163486861654991e-03 6.2771631522458109e-04 0.0000000000000000e+00  -5.5318237670307800e-03 6.5952819799165816e-04 0.0000000000000000e+00  -5.8938503506149216e-03 6.8878347276479064e-04 0.0000000000000000e+00  -6.1713079560385825e-03 7.1502635766475752e-04 0.0000000000000000e+00  -6.3241771674448360e-03 7.3780562843157134e-04 0.0000000000000000e+00  -6.3014353332026523e-03 7.5668156538506856e-04 0.0000000000000000e+00  -6.0385550796223991e-03 7.7123314958640616e-04 0.0000000000000000e+00  -5.4545548368099108e-03 7.8106518886023610e-04 0.0000000000000000e+00  -4.4485426151286440e-03 7.8581500621767431e-04 0.0000000000000000e+00  -2.8956796305884048e-03 7.8515829462839763e-04 0.0000000000000000e+00  -6.4246462371524095e-04 7.7881370802703950e-04 0.0000000000000000e+00  2.4988035347670310e-03 7.6654562797588666e-04 0.0000000000000000e+00  6.7565974784072015e-03 7.4816411372711307e-04 0.0000000000000000e+00  1.2408090881216086e-02 7.2351991256088802e-04 0.0000000000000000e+00  1.9788940435879449e-02 6.9248910888498449e-04 0.0000000000000000e+00  2.9305620820895977e-02 6.5492505032480215e-04 0.0000000000000000e+00  4.1450586971232460e-02 6.1042001044682253e-04 0.0000000000000000e+00  0.0000000000000000e+00 -4.2562207627226620e-06 0.0000000000000000e+00  5.5279546178663380e-06 -1.0525956213158469e-06 0.0000000000000000e+00  7.8632940516503395e-06 7.8632940533680105e-06 0.0000000000000000e+00  4.4787275565317508e-06 2.2390610990149710e-05 0.0000000000000000e+00  -7.4537673174910458e-06 4.2503335066560268e-05 0.0000000000000000e+00  -3.0741972486380421e-05 6.8148532232368907e-05 0.0000000000000000e+00  -6.8135255348376094e-05 9.9237297581137329e-05 0.0000000000000000e+00  -1.2230608514903347e-04 1.3564366637916354e-04 0.0000000000000000e+00  -1.9583195134044269e-04 1.7720566682884696e-04 0.0000000000000000e+00  -2.9117375008300177e-04 2.2372572912771353e-04 0.0000000000000000e+00  -4.1064933048199590e-04 2.7496995278885776e-04 0.0000000000000000e+00  -5.5640097477443844e-04 3.3066650909751341e-04 0.0000000000000000e+00  -7.3035511083740070e-04 3.9050353299745617e-04 0.0000000000000000e+00  -9.3417189475665323e-04 4.5412677962444823e-04 0.0000000000000000e+00  -1.1691814712851956e-03 5.2113725137730512e-04 0.0000000000000000e+00  -1.4363026750259216e-03 5.9108896435760097e-04 0.0000000000000000e+00  -1.7359386212592186e-03 6.6348701007087787e-04 0.0000000000000000e+00  -2.0678419999114114e-03 7.3778606902680016e-04 0.0000000000000000e+00  -2.4309408833570649e-03 8.1338953961416203e-04 0.0000000000000000e+00  -2.8231134553612538e-03 8.8964945400211895e-04 0.0000000000000000e+00  -3.2408972522529667e-03 9.6586735945065341e-04 0.0000000000000000e+00  -3.6791152970838893e-03 1.0412963449678142e-03 0.0000000000000000e+00  -4.1303979612866363e-03 1.1151443877923616e-03 0.0000000000000000e+00  -4.5845756128712976e-03 1.1865791773510413e-03 0.0000000000000000e+00  -5.0279132580992149e-03 1.2547345446541742e-03 0.0000000000000000e+00  -5.4421546450192900e-03 1.3187185778807747e-03 0.0000000000000000e+00  -5.8033398657745591e-03 1.3776234394475403e-03 0.0000000000000000e+00  -6.0803575162621396e-03 1.4305368132756916e-03 0.0000000000000000e+00  -6.2331899574379849e-03 1.4765548054572004e-03 0.0000000000000000e+00  -6.2108079324991634e-03 1.5147959993801452e-03 0.0000000000000000e+00  -5.9486680902155553e-03 1.5444162343593330e-03 0.0000000000000000e+00  -5.3657626354634115e-03 1.5646235410782122e-03 0.0000000000000000e+00  -4.3611623913423596e-03 1.5746925276109143e-03 0.0000000000000000e+00  -2.8099800309616153e-03 1.5739773397605778e-03 0.0000000000000000e+00  -5.5865485225099407e-04 1.5619220179503939e-03 0.0000000000000000e+00  2.5805817376001782e-03 1.5380663358581835e-03 0.0000000000000000e+00  6.8362681401821744e-03 1.5020430910629779e-03 0.0000000000000000e+00  1.2485613443955112e-02 1.4535560907025008e-03 0.0000000000000000e+00  1.9864200369863701e-02 1.3923048877928881e-03 0.0000000000000000e+00  2.9378147054198715e-02 1.3177404880784481e-03 0.0000000000000000e+00  4.1519556003445687e-02 1.2282548047789755e-03 0.0000000000000000e+00  0.0000000000000000e+00 -1.3295946068938043e-05 0.0000000000000000e+00  1.2779980745103005e-05 -8.7266544020628585e-06 0.0000000000000000e+00  2.2390610992385372e-05 4.4787275501493660e-06 0.0000000000000000e+00  2.6207819777115289e-05 2.6207819770920500e-05 0.0000000000000000e+00  2.1453185833994819e-05 5.6373636474016595e-05 0.0000000000000000e+00  5.3338292207719123e-06 9.4867085334137080e-05 0.0000000000000000e+00  -2.4897534156483865e-05 1.4153818382035995e-04 0.0000000000000000e+00  -7.1918060153942291e-05 1.9619173646313298e-04 0.0000000000000000e+00  -1.3831434230092806e-04 2.5858479325656099e-04 0.0000000000000000e+00  -2.2655992962186585e-04 3.2842406314619407e-04 0.0000000000000000e+00  -3.3898871310542370e-04 4.0536304598518371e-04 0.0000000000000000e+00  -4.7776252638181694e-04 4.8899883050725805e-04 0.0000000000000000e+00  -6.4483104694585465e-04 5.7886861196373713e-04 0.0000000000000000e+00  -8.4188153473484706e-04 6.7444605913785617e-04 0.0000000000000000e+00  -1.0702751655552796e-03 7.7513770291750845e-04 0.0000000000000000e+00  -1.3309656927949268e-03 8.8027954206397810e-04 0.0000000000000000e+00  -1.6243948650496542e-03 9.8913407823143784e-04 0.0000000000000000e+00  -1.9503573945373882e-03 1.1008880076335864e-03 0.0000000000000000e+00  -2.3078262696222701e-03 1.2146508121457442e-03 0.0000000000000000e+00  -2.6947268034185827e-03 1.3294545066565684e-03 0.0000000000000000e+00  -3.1076449976733091e-03 1.4442548094901653e-03 0.0000000000000000e+00  -3.5414525960355331e-03 1.5579340056124042e-03 0.0000000000000000e+00  -3.9888276628136030e-03 1.6693057643189905e-03 0.0000000000000000e+00  -4.4396457578485685e-03 1.7771221504343155e-03 0.0000000000000000e+00  -4.8802129392733337e-03 1.8800830261743620e-03 0.0000000000000000e+00  -5.2923081014176537e-03 1.9768479757577345e-03 0.0000000000000000e+00  -5.6519987388987591e-03 2.0660507932779206e-03 0.0000000000000000e+00  -5.9281912635060470e-03 2.1463164526543286e-03 0.0000000000000000e+00  -6.0808744971603303e-03 2.2162803269922147e-03 0.0000000000000000e+00  -6.0590126811336338e-03 2.2746092422821227e-03 0.0000000000000000e+00  -5.7980416420615718e-03 2.3200237389114781e-03 0.0000000000000000e+00  -5.2169174368465743e-03 2.3513206688531682e-03 0.0000000000000000e+00  -4.2146589032170259e-03 2.3673949554250092e-03 0.0000000000000000e+00  -2.6663111452526361e-03 2.3672589129342509e-03 0.0000000000000000e+00  -4.1823193714031742e-04 2.3500567645901951e-03 0.0000000000000000e+00  2.7174383571124429e-03 2.3150703865242022e-03 0.0000000000000000e+00  6.9693280806079599e-03 2.2617085297334714e-03 0.0000000000000000e+00  1.2614710330441785e-02 2.1894627184465506e-03 0.0000000000000000e+00  1.9989148597457554e-02 2.0977927025256867e-03 0.0000000000000000e+00  2.9498538192464299e-02 1.9858691689136881e-03 0.0000000000000000e+00  4.1634359585404186e-02 1.8520961786672400e-03 0.0000000000000000e+00  0.0000000000000000e+00 -3.0928592824527071e-05 0.0000000000000000e+00  2.2800158996477549e-05 -2.4946411992231880e-05 0.0000000000000000e+00  4.2503335068790167e-05 -7.4537673218952859e-06 0.0000000000000000e+00  5.6373636472313727e-05 2.1453185830608134e-05 0.0000000000000000e+00  6.1648914507907800e-05 6.1648914511333119e-05 0.0000000000000000e+00  5.5547312812530092e-05 1.1297628399045214e-04 0.0000000000000000e+00  3.5322625041483555e-05 1.7522895233014103e-04 0.0000000000000000e+00  -1.7078244059945792e-06 2.4814460779887818e-04 0.0000000000000000e+00  -5.8141434233615466e-05 3.3140059928167813e-04 0.0000000000000000e+00  -1.3646756800584305e-04 4.2460972649669223e-04 0.0000000000000000e+00  -2.3904099819865713e-04 5.2731570587009587e-04 0.0000000000000000e+00  -3.6804968009328644e-04 6.3898830301802436e-04 0.0000000000000000e+00  -5.2547484659766790e-04 7.5901823792266158e-04 0.0000000000000000e+00  -7.1304089770250453e-04 8.8671201115569183e-04 0.0000000000000000e+00  -9.3215179291390976e-04 1.0212868344656675e-03 0.0000000000000000e+00  -1.1838096396667775e-03 1.1618658844017543e-03 0.0000000000000000e+00  -1.4685098704490924e-03 1.3074741316483724e-03 0.0000000000000000e+00  -1.7861057722829740e-03 1.4570350302677071e-03 0.0000000000000000e+00  -2.1356331342267370e-03 1.6093683795567830e-03 0.0000000000000000e+00  -2.5150833808704628e-03 1.7631896951421453e-03 0.0000000000000000e+00  -2.9211107528017157e-03 1.9171114424746307e-03 0.0000000000000000e+00  -3.3486558976322379e-03 2.0696464928875776e-03 0.0000000000000000e+00  -3.7904647083068601e-03 2.2192141542121046e-03 0.0000000000000000e+00  -4.2364774940611876e-03 2.3641491013695263e-03 0.0000000000000000e+00  -4.6730597481844426e-03 2.5027134808746796e-03 0.0000000000000000e+00  -5.0820420723075056e-03 2.6331123819515229e-03 0.0000000000000000e+00  -5.4395334231867095e-03 2.7535127505928843e-03 0.0000000000000000e+00  -5.7144689056522801e-03 2.8620656664818333e-03 0.0000000000000000e+00  -5.8668508536040848e-03 2.9569317026350581e-03 0.0000000000000000e+00  -5.8456396771354481e-03 3.0363088400339111e-03 0.0000000000000000e+00  -5.5862482744525278e-03 3.0984621098089204e-03 0.0000000000000000e+00  -5.0075895203252410e-03 3.1417537706216617e-03 0.0000000000000000e+00  -4.0086185170240575e-03 3.1646723668883343e-03 0.0000000000000000e+00  -2.4642970647013717e-03 3.1658583689886098e-03 0.0000000000000000e+00  -2.2088315265832433e-04 3.1441230786640106e-03 0.0000000000000000e+00  2.9095922487212319e-03 3.0984556980976651e-03 0.0000000000000000e+00  7.1558623427701775e-03 3.0280102576809623e-03 0.0000000000000000e+00  1.2795272333893506e-02 2.9320589619210909e-03 0.0000000000000000e+00  2.0163372355129161e-02 2.8098936807444278e-03 0.0000000000000000e+00  2.9665881083690199e-02 2.6606678680769621e-03 0.0000000000000000e+00  4.1793913157470046e-02 2.4832524549338172e-03 0.0000000000000000e+00  0.0000000000000000e+00 -5.9942226460638385e-05 0.0000000000000000e+00  3.5591254313807431e-05 -5.2530098692091629e-05 0.0000000000000000e+00  6.8148532235112738e-05 -3.0741972492378451e-05 0.0000000000000000e+00  9.4867085332607976e-05 5.3338292191077882e-06 0.0000000000000000e+00  1.1297628399103193e-04 5.5547312820247545e-05 0.0000000000000000e+00  1.1970008737535581e-04 1.1970008737754915e-04 0.0000000000000000e+00  1.1229194864842667e-04 1.9753456023977774e-04 0.0000000000000000e+00  8.8062317548326215e-05 2.8872604765645138e-04 0.0000000000000000e+00  4.4400832107169771e-05 3.9287689621075471e-04 0.0000000000000000e+00  -2.1200950298208445e-05 5.0951081901197339e-04 0.0000000000000000e+00  -1.1112328865326726e-04 6.3806689112533939e-04 0.0000000000000000e+00  -2.2758639180078563e-04 7.7789314399559343e-04 0.0000000000000000e+00  -3.7261083900233982e-04 9.2823987095926508e-04 0.0000000000000000e+00  -5.4796770468454326e-04 1.0882528272732077e-03 0.0000000000000000e+00  -7.5511505345202460e-04 1.2569665518653169e-03 0.0000000000000000e+00  -9.9511645966494163e-04 1.4332980768981610e-03 0.0000000000000000e+00  -1.2685359059244211e-03 1.6160413309865413e-03 0.0000000000000000e+00  -1.5753017868734552e-03 1.8038625811665106e-03 0.0000000000000000e+00  -1.9145307482675553e-03 1.9952972968194566e-03 0.0000000000000000e+00  -2.2842996977626823e-03 2.1887488516335396e-03 0.0000000000000000e+00  -2.6813515228694225e-03 2.3824895044578637e-03 0.0000000000000000e+00  -3.1007168642440920e-03 2.5746641126503079e-03 0.0000000000000000e+00  -3.5352307786579518e-03 2.7632970263232869e-03 0.0000000000000000e+00  -3.9749193927325552e-03 2.9463025842377680e-03 0.0000000000000000e+00  -4.4062278491430289e-03 3.1214995741610939e-03 0.0000000000000000e+00  -4.8110571692417843e-03 3.2866299262875502e-03 0.0000000000000000e+00  -5.1655742916702574e-03 3.4393817702458186e-03 0.0000000000000000e+00  -5.4387566366065898e-03 3.5774167975262867e-03 0.0000000000000000e+00  -5.5906300963644720e-03 3.6984016253413005e-03 0.0000000000000000e+00  -5.5701571233357193e-03 3.8000425484759830e-03 0.0000000000000000e+00  -5.3127289442210460e-03 3.8801226855995174e-03 0.0000000000000000e+00  -4.7372116930908424e-03 3.9365400634433154e-03 0.0000000000000000e+00  -3.7424885190088710e-03 3.9673446137645360e-03 0.0000000000000000e+00  -2.2034256713283000e-03 3.9707713365264678e-03 0.0000000000000000e+00  3.3833739951857545e-05 3.9452659306662185e-03 0.0000000000000000e+00  3.1573845093664098e-03 3.8894979333087831e-03 0.0000000000000000e+00  7.3960814940025642e-03 3.8023549775172711e-03 0.0000000000000000e+00  1.3027363289411360e-02 3.6829113022179539e-03 0.0000000000000000e+00  2.0386813867205627e-02 3.5303682879605520e-03 0.0000000000000000e+00  2.9880113406531440e-02 3.3439854015478751e-03 0.0000000000000000e+00  4.1998373617466944e-02 3.1230741899513199e-03 0.0000000000000000e+00  0.0000000000000000e+00 -1.0306906265140521e-04 0.0000000000000000e+00  5.1112431887019930e-05 -9.4222457438865344e-05 0.0000000000000000e+00  9.9237297575085679e-05 -6.8135255348762680e-05 0.0000000000000000e+00  1.4153818381244801e-04 -2.4897534151370886e-05 0.0000000000000000e+00  1.7522895231905712e-04 3.5322625042597383e-05 0.0000000000000000e+00  1.9753456023140648e-04 1.1229194865421307e-04 0.0000000000000000e+00  2.0570696206711572e-04 2.0570696207236524e-04 0.0000000000000000e+00  1.9704888158540110e-04 3.1518616125275818e-04 0.0000000000000000e+00  1.6893538897327603e-04 4.4026293062059401e-04 0.0000000000000000e+00  1.1883622875703362e-04 5.8037846748110427e-04 0.0000000000000000e+00  4.4341583415110494e-05 7.3487428743782078e-04 0.0000000000000000e+00  -5.6806585941222935e-05 9.0298424406989007e-04 0.0000000000000000e+00  -1.8667543002477926e-04 1.0838261750745056e-03 0.0000000000000000e+00  -3.4709168964654251e-04 1.2763933776610780e-03 0.0000000000000000e+00  -5.3957837932853601e-04 1.4795461751187879e-03 0.0000000000000000e+00  -7.6527328608429613e-04 1.6920038867553394e-03 0.0000000000000000e+00  -1.0248235938600469e-03 1.9123375622554192e-03 0.0000000000000000e+00  -1.3182493158123451e-03 2.1389638899177478e-03 0.0000000000000000e+00  -1.6447662215523262e-03 2.3701407353457567e-03 0.0000000000000000e+00  -2.0025565560037317e-03 2.6039648098696447e-03 0.0000000000000000e+00  -2.3884730522697943e-03 2.8383720017883828e-03 0.0000000000000000e+00  -2.7976585641723943e-03 3.0711409244205574e-03 0.0000000000000000e+00  -3.2230601455584813e-03 3.2999002357504401e-03 0.0000000000000000e+00  -3.6548126910741770e-03 3.5221402593599892e-03 0.0000000000000000e+00  -4.0794634800623885e-03 3.7352293765821553e-03 0.0000000000000000e+00  -4.4790053197699539e-03 3.9364355571747710e-03 0.0000000000000000e+00  -4.8296826570092969e-03 4.1229532413744338e-03 0.0000000000000000e+00  -5.1005321593778083e-03 4.2919355710581020e-03 0.0000000000000000e+00  -5.2516168632338661e-03 4.4405316830139355e-03 0.0000000000000000e+00  -5.2319108029990138e-03 4.5659284163060594e-03 0.0000000000000000e+00  -4.9767884444759944e-03 4.6653953418238948e-03 0.0000000000000000e+00  -4.4050690657471102e-03 4.7363314924498516e-03 0.0000000000000000e+00  -3.4155585693479615e-03 4.7763115569848915e-03 0.0000000000000000e+00  -1.8830172722371587e-03 4.7831286126357063e-03 0.0000000000000000e+00  3.4654191919830261e-04 4.7548297560718704e-03 0.0000000000000000e+