<?xml version="1.0"?>
<VTKFile type="UnstructuredGrid"  version="0.1"  >
<UnstructuredGrid>
<Piece  NumberOfPoints="1681" NumberOfCells="3200">
<Points>
<DataArray  type="Float64"  NumberOfComponents="3"  format="ascii">0 0 0  0.5 0 0  1 0 0  1.5 0 0  2 0 0  2.5 0 0  3 0 0  3.5 0 0  4 0 0  4.5 0 0  5 0 0  5.5 0 0  6 0 0  6.5 0 0  7 0 0  7.5 0 0  8 0 0  8.5 0 0  9 0 0  9.5 0 0  10 0 0  10.5 0 0  11 0 0  11.5 0 0  12 0 0  12.5 0 0  13 0 0  13.5 0 0  14 0 0  14.5 0 0  15 0 0  15.5 0 0  16 0 0  16.5 0 0  17 0 0  17.5 0 0  18 0 0  18.5 0 0  19 0 0  19.5 0 0  20 0 0  0 0.5 0  0.5 0.5 0  1 0.5 0  1.5 0.5 0  2 0.5 0  2.5 0.5 0  3 0.5 0  3.5 0.5 0  4 0.5 0  4.5 0.5 0  5 0.5 0  5.5 0.5 0  6 0.5 0  6.5 0.5 0  7 0.5 0  7.5 0.5 0  8 0.5 0  8.5 0.5 0  9 0.5 0  9.5 0.5 0  10 0.5 0  10.5 0.5 0  11 0.5 0  11.5 0.5 0  12 0.5 0  12.5 0.5 0  13 0.5 0  13.5 0.5 0  14 0.5 0  14.5 0.5 0  15 0.5 0  15.5 0.5 0  16 0.5 0  16.5 0.5 0  17 0.5 0  17.5 0.5 0  18 0.5 0  18.5 0.5 0  19 0.5 0  19.5 0.5 0  20 0.5 0  0 1 0  0.5 1 0  1 1 0  1.5 1 0  2 1 0  2.5 1 0  3 1 0  3.5 1 0  4 1 0  4.5 1 0  5 1 0  5.5 1 0  6 1 0  6.5 1 0  7 1 0  7.5 1 0  8 1 0  8.5 1 0  9 1 0  9.5 1 0  10 1 0  10.5 1 0  11 1 0  11.5 1 0  12 1 0  12.5 1 0  13 1 0  13.5 1 0  14 1 0  14.5 1 0  15 1 0  15.5 1 0  16 1 0  16.5 1 0  17 1 0  17.5 1 0  18 1 0  18.5 1 0  19 1 0  19.5 1 0  20 1 0  0 1.5 0  0.5 1.5 0  1 1.5 0  1.5 1.5 0  2 1.5 0  2.5 1.5 0  3 1.5 0  3.5 1.5 0  4 1.5 0  4.5 1.5 0  5 1.5 0  5.5 1.5 0  6 1.5 0  6.5 1.5 0  7 1.5 0  7.5 1.5 0  8 1.5 0  8.5 1.5 0  9 1.5 0  9.5 1.5 0  10 1.5 0  10.5 1.5 0  11 1.5 0  11.5 1.5 0  12 1.5 0  12.5 1.5 0  13 1.5 0  13.5 1.5 0  14 1.5 0  14.5 1.5 0  15 1.5 0  15.5 1.5 0  16 1.5 0  16.5 1.5 0  17 1.5 0  17.5 1.5 0  18 1.5 0  18.5 1.5 0  19 1.5 0  19.5 1.5 0  20 1.5 0  0 2 0  0.5 2 0  1 2 0  1.5 2 0  2 2 0  2.5 2 0  3 2 0  3.5 2 0  4 2 0  4.5 2 0  5 2 0  5.5 2 0  6 2 0  6.5 2 0  7 2 0  7.5 2 0  8 2 0  8.5 2 0  9 2 0  9.5 2 0  10 2 0  10.5 2 0  11 2 0  11.5 2 0  12 2 0  12.5 2 0  13 2 0  13.5 2 0  14 2 0  14.5 2 0  15 2 0  15.5 2 0  16 2 0  16.5 2 0  17 2 0  17.5 2 0  18 2 0  18.5 2 0  19 2 0  19.5 2 0  20 2 0  0 2.5 0  0.5 2.5 0  1 2.5 0  1.5 2.5 0  2 2.5 0  2.5 2.5 0  3 2.5 0  3.5 2.5 0  4 2.5 0  4.5 2.5 0  5 2.5 0  5.5 2.5 0  6 2.5 0  6.5 2.5 0  7 2.5 0  7.5 2.5 0  8 2.5 0  8.5 2.5 0  9 2.5 0  9.5 2.5 0  10 2.5 0  10.5 2.5 0  11 2.5 0  11.5 2.5 0  12 2.5 0  12.5 2.5 0  13 2.5 0  13.5 2.5 0  14 2.5 0  14.5 2.5 0  15 2.5 0  15.5 2.5 0  16 2.5 0  16.5 2.5 0  17 2.5 0  17.5 2.5 0  18 2.5 0  18.5 2.5 0  19 2.5 0  19.5 2.5 0  20 2.5 0  0 3 0  0.5 3 0  1 3 0  1.5 3 0  2 3 0  2.5 3 0  3 3 0  3.5 3 0  4 3 0  4.5 3 0  5 3 0  5.5 3 0  6 3 0  6.5 3 0  7 3 0  7.5 3 0  8 3 0  8.5 3 0  9 3 0  9.5 3 0  10 3 0  10.5 3 0  11 3 0  11.5 3 0  12 3 0  12.5 3 0  13 3 0  13.5 3 0  14 3 0  14.5 3 0  15 3 0  15.5 3 0  16 3 0  16.5 3 0  17 3 0  17.5 3 0  18 3 0  18.5 3 0  19 3 0  19.5 3 0  20 3 0  0 3.5 0  0.5 3.5 0  1 3.5 0  1.5 3.5 0  2 3.5 0  2.5 3.5 0  3 3.5 0  3.5 3.5 0  4 3.5 0  4.5 3.5 0  5 3.5 0  5.5 3.5 0  6 3.5 0  6.5 3.5 0  7 3.5 0  7.5 3.5 0  8 3.5 0  8.5 3.5 0  9 3.5 0  9.5 3.5 0  10 3.5 0  10.5 3.5 0  11 3.5 0  11.5 3.5 0  12 3.5 0  12.5 3.5 0  13 3.5 0  13.5 3.5 0  14 3.5 0  14.5 3.5 0  15 3.5 0  15.5 3.5 0  16 3.5 0  16.5 3.5 0  17 3.5 0  17.5 3.5 0  18 3.5 0  18.5 3.5 0  19 3.5 0  19.5 3.5 0  20 3.5 0  0 4 0  0.5 4 0  1 4 0  1.5 4 0  2 4 0  2.5 4 0  3 4 0  3.5 4 0  4 4 0  4.5 4 0  5 4 0  5.5 4 0  6 4 0  6.5 4 0  7 4 0  7.5 4 0  8 4 0  8.5 4 0  9 4 0  9.5 4 0  10 4 0  10.5 4 0  11 4 0  11.5 4 0  12 4 0  12.5 4 0  13 4 0  13.5 4 0  14 4 0  14.5 4 0  15 4 0  15.5 4 0  16 4 0  16.5 4 0  17 4 0  17.5 4 0  18 4 0  18.5 4 0  19 4 0  19.5 4 0  20 4 0  0 4.5 0  0.5 4.5 0  1 4.5 0  1.5 4.5 0  2 4.5 0  2.5 4.5 0  3 4.5 0  3.5 4.5 0  4 4.5 0  4.5 4.5 0  5 4.5 0  5.5 4.5 0  6 4.5 0  6.5 4.5 0  7 4.5 0  7.5 4.5 0  8 4.5 0  8.5 4.5 0  9 4.5 0  9.5 4.5 0  10 4.5 0  10.5 4.5 0  11 4.5 0  11.5 4.5 0  12 4.5 0  12.5 4.5 0  13 4.5 0  13.5 4.5 0  14 4.5 0  14.5 4.5 0  15 4.5 0  15.5 4.5 0  16 4.5 0  16.5 4.5 0  17 4.5 0  17.5 4.5 0  18 4.5 0  18.5 4.5 0  19 4.5 0  19.5 4.5 0  20 4.5 0  0 5 0  0.5 5 0  1 5 0  1.5 5 0  2 5 0  2.5 5 0  3 5 0  3.5 5 0  4 5 0  4.5 5 0  5 5 0  5.5 5 0  6 5 0  6.5 5 0  7 5 0  7.5 5 0  8 5 0  8.5 5 0  9 5 0  9.5 5 0  10 5 0  10.5 5 0  11 5 0  11.5 5 0  12 5 0  12.5 5 0  13 5 0  13.5 5 0  14 5 0  14.5 5 0  15 5 0  15.5 5 0  16 5 0  16.5 5 0  17 5 0  17.5 5 0  18 5 0  18.5 5 0  19 5 0  19.5 5 0  20 5 0  0 5.5 0  0.5 5.5 0  1 5.5 0  1.5 5.5 0  2 5.5 0  2.5 5.5 0  3 5.5 0  3.5 5.5 0  4 5.5 0  4.5 5.5 0  5 5.5 0  5.5 5.5 0  6 5.5 0  6.5 5.5 0  7 5.5 0  7.5 5.5 0  8 5.5 0  8.5 5.5 0  9 5.5 0  9.5 5.5 0  10 5.5 0  10.5 5.5 0  11 5.5 0  11.5 5.5 0  12 5.5 0  12.5 5.5 0  13 5.5 0  13.5 5.5 0  14 5.5 0  14.5 5.5 0  15 5.5 0  15.5 5.5 0  16 5.5 0  16.5 5.5 0  17 5.5 0  17.5 5.5 0  18 5.5 0  18.5 5.5 0  19 5.5 0  19.5 5.5 0  20 5.5 0  0 6 0  0.5 6 0  1 6 0  1.5 6 0  2 6 0  2.5 6 0  3 6 0  3.5 6 0  4 6 0  4.5 6 0  5 6 0  5.5 6 0  6 6 0  6.5 6 0  7 6 0  7.5 6 0  8 6 0  8.5 6 0  9 6 0  9.5 6 0  10 6 0  10.5 6 0  11 6 0  11.5 6 0  12 6 0  12.5 6 0  13 6 0  13.5 6 0  14 6 0  14.5 6 0  15 6 0  15.5 6 0  16 6 0  16.5 6 0  17 6 0  17.5 6 0  18 6 0  18.5 6 0  19 6 0  19.5 6 0  20 6 0  0 6.5 0  0.5 6.5 0  1 6.5 0  1.5 6.5 0  2 6.5 0  2.5 6.5 0  3 6.5 0  3.5 6.5 0  4 6.5 0  4.5 6.5 0  5 6.5 0  5.5 6.5 0  6 6.5 0  6.5 6.5 0  7 6.5 0  7.5 6.5 0  8 6.5 0  8.5 6.5 0  9 6.5 0  9.5 6.5 0  10 6.5 0  10.5 6.5 0  11 6.5 0  11.5 6.5 0  12 6.5 0  12.5 6.5 0  13 6.5 0  13.5 6.5 0  14 6.5 0  14.5 6.5 0  15 6.5 0  15.5 6.5 0  16 6.5 0  16.5 6.5 0  17 6.5 0  17.5 6.5 0  18 6.5 0  18.5 6.5 0  19 6.5 0  19.5 6.5 0  20 6.5 0  0 7 0  0.5 7 0  1 7 0  1.5 7 0  2 7 0  2.5 7 0  3 7 0  3.5 7 0  4 7 0  4.5 7 0  5 7 0  5.5 7 0  6 7 0  6.5 7 0  7 7 0  7.5 7 0  8 7 0  8.5 7 0  9 7 0  9.5 7 0  10 7 0  10.5 7 0  11 7 0  11.5 7 0  12 7 0  12.5 7 0  13 7 0  13.5 7 0  14 7 0  14.5 7 0  15 7 0  15.5 7 0  16 7 0  16.5 7 0  17 7 0  17.5 7 0  18 7 0  18.5 7 0  19 7 0  19.5 7 0  20 7 0  0 7.5 0  0.5 7.5 0  1 7.5 0  1.5 7.5 0  2 7.5 0  2.5 7.5 0  3 7.5 0  3.5 7.5 0  4 7.5 0  4.5 7.5 0  5 7.5 0  5.5 7.5 0  6 7.5 0  6.5 7.5 0  7 7.5 0  7.5 7.5 0  8 7.5 0  8.5 7.5 0  9 7.5 0  9.5 7.5 0  10 7.5 0  10.5 7.5 0  11 7.5 0  11.5 7.5 0  12 7.5 0  12.5 7.5 0  13 7.5 0  13.5 7.5 0  14 7.5 0  14.5 7.5 0  15 7.5 0  15.5 7.5 0  16 7.5 0  16.5 7.5 0  17 7.5 0  17.5 7.5 0  18 7.5 0  18.5 7.5 0  19 7.5 0  19.5 7.5 0  20 7.5 0  0 8 0  0.5 8 0  1 8 0  1.5 8 0  2 8 0  2.5 8 0  3 8 0  3.5 8 0  4 8 0  4.5 8 0  5 8 0  5.5 8 0  6 8 0  6.5 8 0  7 8 0  7.5 8 0  8 8 0  8.5 8 0  9 8 0  9.5 8 0  10 8 0  10.5 8 0  11 8 0  11.5 8 0  12 8 0  12.5 8 0  13 8 0  13.5 8 0  14 8 0  14.5 8 0  15 8 0  15.5 8 0  16 8 0  16.5 8 0  17 8 0  17.5 8 0  18 8 0  18.5 8 0  19 8 0  19.5 8 0  20 8 0  0 8.5 0  0.5 8.5 0  1 8.5 0  1.5 8.5 0  2 8.5 0  2.5 8.5 0  3 8.5 0  3.5 8.5 0  4 8.5 0  4.5 8.5 0  5 8.5 0  5.5 8.5 0  6 8.5 0  6.5 8.5 0  7 8.5 0  7.5 8.5 0  8 8.5 0  8.5 8.5 0  9 8.5 0  9.5 8.5 0  10 8.5 0  10.5 8.5 0  11 8.5 0  11.5 8.5 0  12 8.5 0  12.5 8.5 0  13 8.5 0  13.5 8.5 0  14 8.5 0  14.5 8.5 0  15 8.5 0  15.5 8.5 0  16 8.5 0  16.5 8.5 0  17 8.5 0  17.5 8.5 0  18 8.5 0  18.5 8.5 0  19 8.5 0  19.5 8.5 0  20 8.5 0  0 9 0  0.5 9 0  1 9 0  1.5 9 0  2 9 0  2.5 9 0  3 9 0  3.5 9 0  4 9 0  4.5 9 0  5 9 0  5.5 9 0  6 9 0  6.5 9 0  7 9 0  7.5 9 0  8 9 0  8.5 9 0  9 9 0  9.5 9 0  10 9 0  10.5 9 0  11 9 0  11.5 9 0  12 9 0  12.5 9 0  13 9 0  13.5 9 0  14 9 0  14.5 9 0  15 9 0  15.5 9 0  16 9 0  16.5 9 0  17 9 0  17.5 9 0  18 9 0  18.5 9 0  19 9 0  19.5 9 0  20 9 0  0 9.5 0  0.5 9.5 0  1 9.5 0  1.5 9.5 0  2 9.5 0  2.5 9.5 0  3 9.5 0  3.5 9.5 0  4 9.5 0  4.5 9.5 0  5 9.5 0  5.5 9.5 0  6 9.5 0  6.5 9.5 0  7 9.5 0  7.5 9.5 0  8 9.5 0  8.5 9.5 0  9 9.5 0  9.5 9.5 0  10 9.5 0  10.5 9.5 0  11 9.5 0  11.5 9.5 0  12 9.5 0  12.5 9.5 0  13 9.5 0  13.5 9.5 0  14 9.5 0  14.5 9.5 0  15 9.5 0  15.5 9.5 0  16 9.5 0  16.5 9.5 0  17 9.5 0  17.5 9.5 0  18 9.5 0  18.5 9.5 0  19 9.5 0  19.5 9.5 0  20 9.5 0  0 10 0  0.5 10 0  1 10 0  1.5 10 0  2 10 0  2.5 10 0  3 10 0  3.5 10 0  4 10 0  4.5 10 0  5 10 0  5.5 10 0  6 10 0  6.5 10 0  7 10 0  7.5 10 0  8 10 0  8.5 10 0  9 10 0  9.5 10 0  10 10 0  10.5 10 0  11 10 0  11.5 10 0  12 10 0  12.5 10 0  13 10 0  13.5 10 0  14 10 0  14.5 10 0  15 10 0  15.5 10 0  16 10 0  16.5 10 0  17 10 0  17.5 10 0  18 10 0  18.5 10 0  19 10 0  19.5 10 0  20 10 0  0 10.5 0  0.5 10.5 0  1 10.5 0  1.5 10.5 0  2 10.5 0  2.5 10.5 0  3 10.5 0  3.5 10.5 0  4 10.5 0  4.5 10.5 0  5 10.5 0  5.5 10.5 0  6 10.5 0  6.5 10.5 0  7 10.5 0  7.5 10.5 0  8 10.5 0  8.5 10.5 0  9 10.5 0  9.5 10.5 0  10 10.5 0  10.5 10.5 0  11 10.5 0  11.5 10.5 0  12 10.5 0  12.5 10.5 0  13 10.5 0  13.5 10.5 0  14 10.5 0  14.5 10.5 0  15 10.5 0  15.5 10.5 0  16 10.5 0  16.5 10.5 0  17 10.5 0  17.5 10.5 0  18 10.5 0  18.5 10.5 0  19 10.5 0  19.5 10.5 0  20 10.5 0  0 11 0  0.5 11 0  1 11 0  1.5 11 0  2 11 0  2.5 11 0  3 11 0  3.5 11 0  4 11 0  4.5 11 0  5 11 0  5.5 11 0  6 11 0  6.5 11 0  7 11 0  7.5 11 0  8 11 0  8.5 11 0  9 11 0  9.5 11 0  10 11 0  10.5 11 0  11 11 0  11.5 11 0  12 11 0  12.5 11 0  13 11 0  13.5 11 0  14 11 0  14.5 11 0  15 11 0  15.5 11 0  16 11 0  16.5 11 0  17 11 0  17.5 11 0  18 11 0  18.5 11 0  19 11 0  19.5 11 0  20 11 0  0 11.5 0  0.5 11.5 0  1 11.5 0  1.5 11.5 0  2 11.5 0  2.5 11.5 0  3 11.5 0  3.5 11.5 0  4 11.5 0  4.5 11.5 0  5 11.5 0  5.5 11.5 0  6 11.5 0  6.5 11.5 0  7 11.5 0  7.5 11.5 0  8 11.5 0  8.5 11.5 0  9 11.5 0  9.5 11.5 0  10 11.5 0  10.5 11.5 0  11 11.5 0  11.5 11.5 0  12 11.5 0  12.5 11.5 0  13 11.5 0  13.5 11.5 0  14 11.5 0  14.5 11.5 0  15 11.5 0  15.5 11.5 0  16 11.5 0  16.5 11.5 0  17 11.5 0  17.5 11.5 0  18 11.5 0  18.5 11.5 0  19 11.5 0  19.5 11.5 0  20 11.5 0  0 12 0  0.5 12 0  1 12 0  1.5 12 0  2 12 0  2.5 12 0  3 12 0  3.5 12 0  4 12 0  4.5 12 0  5 12 0  5.5 12 0  6 12 0  6.5 12 0  7 12 0  7.5 12 0  8 12 0  8.5 12 0  9 12 0  9.5 12 0  10 12 0  10.5 12 0  11 12 0  11.5 12 0  12 12 0  12.5 12 0  13 12 0  13.5 12 0  14 12 0  14.5 12 0  
[...]
<PointData  Vectors="f_2975-0"> 
<DataArray  type="Float64"  Name="f_2975-0"  NumberOfComponents="3" format="ascii">0.0000000000000000e+00 0.0000000000000000e+00 0.0000000000000000e+00  -1.0527450439819921e-06 0.0000000000000000e+00 0.0000000000000000e+00  -4.7502485124637172e-06 0.0000000000000000e+00 0.0000000000000000e+00  -1.4899938572988461e-05 0.0000000000000000e+00 0.0000000000000000e+00  -3.4720986456036091e-05 0.0000000000000000e+00 0.0000000000000000e+00  -6.7348730240309241e-05 0.0000000000000000e+00 0.0000000000000000e+00  -1.1585261085905274e-04 0.0000000000000000e+00 0.0000000000000000e+00  -1.8321575261733204e-04 0.0000000000000000e+00 0.0000000000000000e+00  -2.7231010364097915e-04 0.0000000000000000e+00 0.0000000000000000e+00  -3.8586783828498350e-04 0.0000000000000000e+00 0.0000000000000000e+00  -5.2644744651058500e-04 0.0000000000000000e+00 0.0000000000000000e+00  -6.9639263681161635e-04 0.0000000000000000e+00 0.0000000000000000e+00  -8.9778173778428413e-04 0.0000000000000000e+00 0.0000000000000000e+00  -1.1323646255307700e-03 0.0000000000000000e+00 0.0000000000000000e+00  -1.4014833333817389e-03 0.0000000000000000e+00 0.0000000000000000e+00  -1.7059713961910786e-03 0.0000000000000000e+00 0.0000000000000000e+00  -2.0460256102218964e-03 0.0000000000000000e+00 0.0000000000000000e+00  -2.4210422206975271e-03 0.0000000000000000e+00 0.0000000000000000e+00  -2.8294075601241154e-03 0.0000000000000000e+00 0.0000000000000000e+00  -3.2682308440293343e-03 0.0000000000000000e+00 0.0000000000000000e+00  -3.7330042027515398e-03 0.0000000000000000e+00 0.0000000000000000e+00  -4.2171721327490556e-03 0.0000000000000000e+00 0.0000000000000000e+00  -4.7115894661030819e-03 0.0000000000000000e+00 0.0000000000000000e+00  -5.2038437939439545e-03 0.0000000000000000e+00 0.0000000000000000e+00  -5.6774151705207268e-03 0.0000000000000000e+00 0.0000000000000000e+00  -6.1106430054742589e-03 0.0000000000000000e+00 0.0000000000000000e+00  -6.4754674180696912e-03 0.0000000000000000e+00 0.0000000000000000e+00  -6.7359099784785759e-03 0.0000000000000000e+00 0.0000000000000000e+00  -6.8462565168356483e-03 0.0000000000000000e+00 0.0000000000000000e+00  -6.7489020779728289e-03 0.0000000000000000e+00 0.0000000000000000e+00  -6.3718142674056670e-03 0.0000000000000000e+00 0.0000000000000000e+00  -5.6255647436803547e-03 0.0000000000000000e+00 0.0000000000000000e+00  -4.3998672958154260e-03 0.0000000000000000e+00 0.0000000000000000e+00  -2.5595416288425195e-03 0.0000000000000000e+00 0.0000000000000000e+00  6.0209963541116400e-05 0.0000000000000000e+00 0.0000000000000000e+00  3.6593774948163000e-03 0.0000000000000000e+00 0.0000000000000000e+00  8.4798176752257821e-03 0.0000000000000000e+00 0.0000000000000000e+00  1.4813417867770877e-02 0.0000000000000000e+00 0.0000000000000000e+00  2.3012430381418116e-02 0.0000000000000000e+00 0.0000000000000000e+00  3.3503558345806858e-02 0.0000000000000000e+00 0.0000000000000000e+00  4.6811390512139235e-02 0.0000000000000000e+00 0.0000000000000000e+00  0.0000000000000000e+00 -1.0527450485146458e-06 0.0000000000000000e+00  1.1092707555813323e-06 1.1092707529708708e-06 0.0000000000000000e+00  -1.1357118014092288e-06 6.2578878966566326e-06 0.0000000000000000e+00  -9.7474681339200190e-06 1.4434327070947082e-05 0.0000000000000000e+00  -2.7976664443915254e-05 2.5730123441556658e-05 0.0000000000000000e+00  -5.8992943676782686e-05 4.0149106608165537e-05 0.0000000000000000e+00  -1.0588003306463154e-04 5.7645689669200602e-05 0.0000000000000000e+00  -1.7162759556290608e-04 7.8146353001245876e-05 0.0000000000000000e+00  -2.5911176401763265e-04 1.0155674365598078e-04 0.0000000000000000e+00  -3.7106848499932554e-04 1.2776317343067106e-04 0.0000000000000000e+00  -5.1006034832545843e-04 1.5663218547981516e-04 0.0000000000000000e+00  -6.7843581104047319e-04 1.8800944845723101e-04 0.0000000000000000e+00  -8.7827875635394543e-04 2.2171841003036026e-04 0.0000000000000000e+00  -1.1113455000866849e-03 2.5755888257082753e-04 0.0000000000000000e+00  -1.3789854310693255e-03 2.9530565741483372e-04 0.0000000000000000e+00  -1.6820403472706991e-03 3.3470722431332535e-04 0.0000000000000000e+00  -2.0207161701955205e-03 3.7548467110371192e-04 0.0000000000000000e+00  -2.3944190477159961e-03 4.1733084327842798e-04 0.0000000000000000e+00  -2.8015458649145947e-03 4.5990984947607883e-04 0.0000000000000000e+00  -3.2392168657513613e-03 5.0285700473589982e-04 0.0000000000000000e+00  -3.7029354608564512e-03 5.4577930746099030e-04 0.0000000000000000e+00  -4.1861574023465782e-03 5.8825654690495698e-04 0.0000000000000000e+00  -4.6797484238331718e-03 6.2984313444333152e-04 0.0000000000000000e+00  -5.1713062821227293e-03 6.7007074218361268e-04 0.0000000000000000e+00  -5.6443200302866287e-03 7.0845181466711504e-04 0.0000000000000000e+00  -6.0771364333174916e-03 7.4448399274821826e-04 0.0000000000000000e+00  -6.4417008030233681e-03 7.7765545091067396e-04 0.0000000000000000e+00  -6.7020371755870702e-03 8.0745110007483497e-04 0.0000000000000000e+00  -6.8124305005905607e-03 8.3335954811733981e-04 0.0000000000000000e+00  -6.7152708892780485e-03 8.5488064178135790e-04 0.0000000000000000e+00  -6.3385161086774210e-03 8.7153334213510168e-04 0.0000000000000000e+00  -5.5927219817867996e-03 8.8286361882337081e-04 0.0000000000000000e+00  -4.3675790073742790e-03 8.8845199475980801e-04 0.0000000000000000e+00  -2.5278742255412522e-03 8.8792033212979258e-04 0.0000000000000000e+00  9.1234329547460800e-05 8.8093739439164969e-04 0.0000000000000000e+00  3.6897937733668109e-03 8.6722255944282406e-04 0.0000000000000000e+00  8.5097252935504939e-03 8.4654665249685299e-04 0.0000000000000000e+00  1.4842950343219655e-02 8.1872819184411428e-04 0.0000000000000000e+00  2.3041523760286085e-02 7.8362265771087783e-04 0.0000000000000000e+00  3.3530539498828942e-02 7.4109663202069360e-04 0.0000000000000000e+00  4.6824057120939955e-02 6.9087576230339714e-04 0.0000000000000000e+00  0.0000000000000000e+00 -4.7502485212597994e-06 0.0000000000000000e+00  6.2578878984249520e-06 -1.1357118016331454e-06 0.0000000000000000e+00  8.9185642836632494e-06 8.9185642853433935e-06 0.0000000000000000e+00  5.1413703596776884e-06 2.5297193386266821e-05 0.0000000000000000e+00  -8.2558256135844581e-06 4.7971002369530758e-05 0.0000000000000000e+00  -3.4430645766689872e-05 7.6880820766355904e-05 0.0000000000000000e+00  -7.6471983853991136e-05 1.1192703152555443e-04 0.0000000000000000e+00  -1.3737794306766923e-04 1.5296828749201060e-04 0.0000000000000000e+00  -2.2003386739774701e-04 1.9982271730737756e-04 0.0000000000000000e+00  -3.2718586810156873e-04 2.5226842845333254e-04 0.0000000000000000e+00  -4.6140821305076736e-04 3.1004272599087452e-04 0.0000000000000000e+00  -6.2506302079388509e-04 3.7284035378726954e-04 0.0000000000000000e+00  -8.2025014478098680e-04 4.4031115651940278e-04 0.0000000000000000e+00  -1.0487443780666978e-03 5.1205747203707805e-04 0.0000000000000000e+00  -1.3119161830420249e-03 5.8763148485867374e-04 0.0000000000000000e+00  -1.6106310155488547e-03 6.6653272881250292e-04 0.0000000000000000e+00  -1.9451209250786617e-03 7.4820591136687655e-04 0.0000000000000000e+00  -2.3148204352141260e-03 8.3203923168029010e-04 0.0000000000000000e+00  -2.7181567155231253e-03 9.1736337099039989e-04 0.0000000000000000e+00  -3.1522817391611791e-03 1.0034513419971242e-03 0.0000000000000000e+00  -3.6127314942872614e-03 1.0895193900670626e-03 0.0000000000000000e+00  -4.0929944266434870e-03 1.1747291398967448e-03 0.0000000000000000e+00  -4.5839682124302061e-03 1.2581911746102150e-03 0.0000000000000000e+00  -5.0732808056764590e-03 1.3389702159776660e-03 0.0000000000000000e+00  -5.5444486046168405e-03 1.4160920431556033e-03 0.0000000000000000e+00  -5.9758416714066724e-03 1.4885522388662907e-03 0.0000000000000000e+00  -6.3394233121590246e-03 1.5553267856162594e-03 0.0000000000000000e+00  -6.5992289764853305e-03 1.6153844477610529e-03 0.0000000000000000e+00  -6.7095471832611369e-03 1.6677007701971431e-03 0.0000000000000000e+00  -6.6127625557984042e-03 1.7112734028036257e-03 0.0000000000000000e+00  -6.2368171837186275e-03 1.7451383271332190e-03 0.0000000000000000e+00  -5.4922400041008002e-03 1.7683864232516341e-03 0.0000000000000000e+00  -4.2686825839188033e-03 1.7801796681924953e-03 0.0000000000000000e+00  -2.4308805404415356e-03 1.7797660774636155e-03 0.0000000000000000e+00  1.8607141943046492e-04 1.7664921939452827e-03 0.0000000000000000e+00  3.7822922128420162e-03 1.7398112203528666e-03 0.0000000000000000e+00  8.5997721213833690e-03 1.6992829199022432e-03 0.0000000000000000e+00  1.4930467037594130e-02 1.6445550400420225e-03 0.0000000000000000e+00  2.3126346566087395e-02 1.5752929015472143e-03 0.0000000000000000e+00  3.3612126564927160e-02 1.4909367921026530e-03 0.0000000000000000e+00  4.6901623566887915e-02 1.3898451719236997e-03 0.0000000000000000e+00  0.0000000000000000e+00 -1.4899938584077961e-05 0.0000000000000000e+00  1.4434327073213375e-05 -9.7474681321723444e-06 0.0000000000000000e+00  2.5297193386959873e-05 5.1413703562960262e-06 0.0000000000000000e+00  2.9638267990571117e-05 2.9638267987948337e-05 0.0000000000000000e+00  2.4332036397364835e-05 6.3644947655671372e-05 0.0000000000000000e+00  6.2379747821924878e-06 1.0703877439639025e-04 0.0000000000000000e+00  -2.7730297024403995e-05 1.5965127145227889e-04 0.0000000000000000e+00  -8.0576042524061443e-05 2.2126317718597742e-04 0.0000000000000000e+00  -1.5519474529252154e-04 2.9160157960596197e-04 0.0000000000000000e+00  -2.5434663215426244e-04 3.7033702839323740e-04 0.0000000000000000e+00  -3.8062386828556499e-04 4.5708034393213701e-04 0.0000000000000000e+00  -5.3641037867890905e-04 5.5137905635735656e-04 0.0000000000000000e+00  -7.2383194031812054e-04 6.5271352964197131e-04 0.0000000000000000e+00  -9.4469356090013637e-04 7.6049291257999300e-04 0.0000000000000000e+00  -1.2004002918747372e-03 8.7405110664889299e-04 0.0000000000000000e+00  -1.4918565125859602e-03 9.9264296658101723e-04 0.0000000000000000e+00  -1.8193373440977144e-03 1.1154409671432634e-03 0.0000000000000000e+00  -2.1823241770624622e-03 1.2415325855104724e-03 0.0000000000000000e+00  -2.5792943067499117e-03 1.3699186647063830e-03 0.0000000000000000e+00  -3.0074523536990209e-03 1.4995130378121940e-03 0.0000000000000000e+00  -3.4623885261591781e-03 1.6291437025532315e-03 0.0000000000000000e+00  -3.9376458952618083e-03 1.7575558383812232e-03 0.0000000000000000e+00  -4.4241757841609955e-03 1.8834169489452715e-03 0.0000000000000000e+00  -4.9096572274133984e-03 2.0053243888613704e-03 0.0000000000000000e+00  -5.3776533703140238e-03 2.1218154898188109e-03 0.0000000000000000e+00  -5.8065747812917484e-03 2.2313804344055101e-03 0.0000000000000000e+00  -6.1684170378785083e-03 2.3324779324875701e-03 0.0000000000000000e+00  -6.4272376122712326e-03 2.4235536319297201e-03 0.0000000000000000e+00  -6.5373348412147035e-03 2.5030610424727848e-03 0.0000000000000000e+00  -6.4410891493885958e-03 2.5694845672535396e-03 0.0000000000000000e+00  -6.0664228368945226e-03 2.6213640213085549e-03 0.0000000000000000e+00  -5.3238282330089343e-03 2.6573197645379828e-03 0.0000000000000000e+00  -4.1029027581098417e-03 2.6760772650470267e-03 0.0000000000000000e+00  -2.2683104314215967e-03 2.6764894654773179e-03 0.0000000000000000e+00  3.4494154316730088e-04 2.6575545506609300e-03 0.0000000000000000e+00  3.9370710180372213e-03 2.6184250845005322e-03 0.0000000000000000e+00  8.7501678931043263e-03 2.5584006265758244e-03 0.0000000000000000e+00  1.5076263524627391e-02 2.4768864383334197e-03 0.0000000000000000e+00  2.3267322092113404e-02 2.3732786343823179e-03 0.0000000000000000e+00  3.3747854501560544e-02 2.2466946405604936e-03 0.0000000000000000e+00  4.7031073147899755e-02 2.0954483326162897e-03 0.0000000000000000e+00  0.0000000000000000e+00 -3.4720986464302814e-05 0.0000000000000000e+00  2.5730123436871699e-05 -2.7976664444573117e-05 0.0000000000000000e+00  4.7971002368808544e-05 -8.2558256131681092e-06 0.0000000000000000e+00  6.3644947651880540e-05 2.4332036398010304e-05 0.0000000000000000e+00  6.9645083861782090e-05 6.9645083865150814e-05 0.0000000000000000e+00  6.2843563485147697e-05 1.2750645303377537e-04 0.0000000000000000e+00  4.0155398707908578e-05 1.9768414519692621e-04 0.0000000000000000e+00  -1.4287338388883174e-06 2.7988333300121778e-04 0.0000000000000000e+00  -6.4816316391660034e-05 3.7374143765432931e-04 0.0000000000000000e+00  -1.5278518226965597e-04 4.7882341823589272e-04 0.0000000000000000e+00  -2.6795076259905669e-04 5.9461671120447667e-04 0.0000000000000000e+00  -4.1272609366642691e-04 7.2052580201504212e-04 0.0000000000000000e+00  -5.8927212135137237e-04 8.5586654267842688e-04 0.0000000000000000e+00  -7.9943524754226645e-04 9.9986037706445083e-04 0.0000000000000000e+00  -1.0446682114633981e-03 1.1516286747123403e-03 0.0000000000000000e+00  -1.3259292980175919e-03 1.3101874128406143e-03 0.0000000000000000e+00  -1.6435534936050822e-03 1.4744424835335761e-03 0.0000000000000000e+00  -1.9970875401009490e-03 1.6431859369995944e-03 0.0000000000000000e+00  -2.3850788505226225e-03 1.8150935025803543e-03 0.0000000000000000e+00  -2.8048059396144007e-03 1.9887237544131925e-03 0.0000000000000000e+00  -3.2519354063810586e-03 2.1625193062010778e-03 0.0000000000000000e+00  -3.7200876287029287e-03 2.3348104267236270e-03 0.0000000000000000e+00  -4.2002902717354872e-03 2.5038214590992532e-03 0.0000000000000000e+00  -4.6802955813238052e-03 2.6676803991332303e-03 0.0000000000000000e+00  -5.1437343645837673e-03 2.8244319347975060e-03 0.0000000000000000e+00  -5.5690766832080831e-03 2.9720541655412292e-03 0.0000000000000000e+00  -5.9283666944703953e-03 3.1084791010312627e-03 0.0000000000000000e+00  -6.1856967626218173e-03 3.2316168795085789e-03 0.0000000000000000e+00  -6.2953837439220983e-03 3.3393834420050697e-03 0.0000000000000000e+00  -6.1998077536669855e-03 3.4297311458598586e-03 0.0000000000000000e+00  -5.8268698878654948e-03 3.5006814932308995e-03 0.0000000000000000e+00  -5.0870188992315143e-03 3.5503587733560671e-03 0.0000000000000000e+00  -3.8697856410200584e-03 3.5770229362922998e-03 0.0000000000000000e+00  -2.0397452598654798e-03 3.5790993425474306e-03 0.0000000000000000e+00  5.6820339634600482e-04 3.5552019655558050e-03 0.0000000000000000e+00  4.1543993645633383e-03 3.5041447373176386e-03 0.0000000000000000e+00  8.9610525393055626e-03 3.4249322730905509e-03 0.0000000000000000e+00  1.5280284627819975e-02 3.3167154474165257e-03 0.0000000000000000e+00  2.3464066181114941e-02 3.1786911432204194e-03 0.0000000000000000e+00  3.3936747162406605e-02 3.0099345059194731e-03 0.0000000000000000e+00  4.7211171431307243e-02 2.8092366164144747e-03 0.0000000000000000e+00  0.0000000000000000e+00 -6.7348730246197028e-05 0.0000000000000000e+00  4.0149106610370866e-05 -5.8992943678846051e-05 0.0000000000000000e+00  7.6880820770230084e-05 -3.4430645767965374e-05 0.0000000000000000e+00  1.0703877439616408e-04 6.2379747814396721e-06 0.0000000000000000e+00  1.2750645303562439e-04 6.2843563489282898e-05 0.0000000000000000e+00  1.3516272313028244e-04 1.3516272313180531e-04 0.0000000000000000e+00  1.2692237620788897e-04 2.2290569281110115e-04 0.0000000000000000e+00  9.9768516163901386e-05 3.2570740079807794e-04 0.0000000000000000e+00  5.0779262825669407e-05 4.4312085053233643e-04 0.0000000000000000e+00  -2.2844451926846819e-05 5.7461078288000760e-04 0.0000000000000000e+00  -1.2374644601292006e-04 7.1954697214254306e-04 0.0000000000000000e+00  -2.5437569021884778e-04 8.7719707901130284e-04 0.0000000000000000e+00  -4.1693697379668399e-04 1.0467191801257934e-03 0.0000000000000000e+00  -6.1332871418416255e-04 1.2271541745499314e-03 0.0000000000000000e+00  -8.4506395703031097e-04 1.4174183161010426e-03 0.0000000000000000e+00  -1.1131695163041826e-03 1.6162961630834460e-03 0.0000000000000000e+00  -1.4180568332537405e-03 1.8224342802210085e-03 0.0000000000000000e+00  -1.7593564646744336e-03 2.0343360701021219e-03 0.0000000000000000e+00  -2.1357061257245642e-03 2.2503581527003606e-03 0.0000000000000000e+00  -2.5444799067231251e-03 2.4687087468861610e-03 0.0000000000000000e+00  -2.9814436737511966e-03 2.6874485346821994e-03 0.0000000000000000e+00  -3.4403187964085879e-03 2.9044945029860570e-03 0.0000000000000000e+00  -3.9122333012025926e-03 3.1176272527365378e-03 0.0000000000000000e+00  -4.3850364368936837e-03 3.3245022374245193e-03 0.0000000000000000e+00  -4.8424495911562389e-03 3.5226653335149387e-03 0.0000000000000000e+00  -5.2630236480115259e-03 3.7095730488020057e-03 0.0000000000000000e+00  -5.6188703144942490e-03 3.8826175333176085e-03 0.0000000000000000e+00  -5.8741326655081874e-03 4.0391563641337998e-03 0.0000000000000000e+00  -5.9831579702668697e-03 4.1765468231686510e-03 0.0000000000000000e+00  -5.8883333048226462e-03 4.2921840689020283e-03 0.0000000000000000e+00  -5.5175406599541170e-03 4.3835422096532026e-03 0.0000000000000000e+00  -4.7811818354325311e-03 4.4482168037204440e-03 0.0000000000000000e+00  -3.5687123195594847e-03 4.4839667135497035e-03 0.0000000000000000e+00  -1.7446047037943432e-03 4.4887524733634729e-03 0.0000000000000000e+00  8.5636796985777137e-04 4.4607673010078810e-03 0.0000000000000000e+00  4.4346855449301625e-03 4.3984554888157707e-03 0.0000000000000000e+00  9.2326986038483560e-03 4.3005112369000464e-03 0.0000000000000000e+00  1.5542644420936724e-02 4.1658501428483178e-03 0.0000000000000000e+00  2.3716550473181292e-02 3.9935499054727262e-03 0.0000000000000000e+00  3.4178748813510941e-02 3.7827782576174279e-03 0.0000000000000000e+00  4.7442099221914856e-02 3.5327853491566182e-03 0.0000000000000000e+00  0.0000000000000000e+00 -1.1585261086647504e-04 0.0000000000000000e+00  5.7645689667485516e-05 -1.0588003306630738e-04 0.0000000000000000e+00  1.1192703151880707e-04 -7.6471983849776937e-05 0.0000000000000000e+00  1.5965127144317159e-04 -2.7730297020576104e-05 0.0000000000000000e+00  1.9768414518777093e-04 4.0155398707718721e-05 0.0000000000000000e+00  2.2290569280224149e-04 1.2692237621426741e-04 0.0000000000000000e+00  2.3222914392003765e-04 2.3222914392617952e-04 0.0000000000000000e+00  2.2262906711669446e-04 3.5564660064776724e-04 0.0000000000000000e+00  1.9116739314754374e-04 4.9665008061984702e-04 0.0000000000000000e+00  1.3502077353025555e-04 6.5461143933920579e-04 0.0000000000000000e+00  5.1512468596709379e-05 8.2879068675793355e-04 0.0000000000000000e+00  -6.1848637596769091e-05 1.0183270833974062e-03 0.0000000000000000e+00  -2.0731922586492114e-04 1.2222298183242294e-03 0.0000000000000000e+00  -3.8685974814463330e-04 1.4393684899847885e-03 0.0000000000000000e+00  -6.0205564408691878e-04 1.6684636767135335e-03 0.0000000000000000e+00  -8.5401646910671222e-04 1.9080779388352517e-03 0.0000000000000000e+00  -1.1432464650826099e-03 2.1566076474727703e-03 0.0000000000000000e+00  -1.4694784363771486e-03 2.4122760877545442e-03 0.0000000000000000e+00  -1.8314608102001915e-03 2.6731283351963770e-03 0.0000000000000000e+00  -2.2266854578703974e-03 2.9370284503290617e-03 0.0000000000000000e+00  -2.6510412509673361e-03 3.2016595736386972e-03 0.0000000000000000e+00  -3.0983754708409383e-03 3.4645275262113529e-03 0.0000000000000000e+00  -3.5599421607595432e-03 3.7229685238321991e-03 0.0000000000000000e+00  -4.0237134191196651e-03 3.9741615877977934e-03 0.0000000000000000e+00  -4.4735266118957175e-03 4.2151461751637241e-03 0.0000000000000000e+00  -4.8880376653035428e-03 4.4428454464772544e-03 0.0000000000000000e+00  -5.2394480767763187e-03 4.6540954308452471e-03 0.0000000000000000e+00  -5.4919710456723773e-03 4.8456801272340902e-03 0.0000000000000000e+00  -5.5999999864689695e-03 5.0143722876545309e-03 0.0000000000000000e+00  -5.5059401784128799e-03 5.1569792545269767e-03 0.0000000000000000e+00  -5.1376605647451227e-03 5.2703927627684097e-03 0.0000000000000000e+00  -4.4055163595647607e-03 5.3516410610940195e-03 0.0000000000000000e+00  -3.1988821131109183e-03 5.3979410531622019e-03 0.0000000000000000e+00  -1.3821163644993841e-03 5.4067474131642927e-03 0.0000000000000000e+00  1.2101509537359163e-03 5.3757948308268263e-03 0.0000000000000000e+00  4