<?xml version="1.0"?>
<VTKFile type="UnstructuredGrid"  version="0.1"  >
<UnstructuredGrid>
<Piece  NumberOfPoints="1681" NumberOfCells="3200">
<Points>
<DataArray  type="Float64"  NumberOfComponents="3"  format="ascii">0 0 0  0.5 0 0  1 0 0  1.5 0 0  2 0 0  2.5 0 0  3 0 0  3.5 0 0  4 0 0  4.5 0 0  5 0 0  5.5 0 0  6 0 0  6.5 0 0  7 0 0  7.5 0 0  8 0 0  8.5 0 0  9 0 0  9.5 0 0  10 0 0  10.5 0 0  11 0 0  11.5 0 0  12 0 0  12.5 0 0  13 0 0  13.5 0 0  14 0 0  14.5 0 0  15 0 0  15.5 0 0  16 0 0  16.5 0 0  17 0 0  17.5 0 0  18 0 0  18.5 0 0  19 0 0  19.5 0 0  20 0 0  0 0.5 0  0.5 0.5 0  1 0.5 0  1.5 0.5 0  2 0.5 0  2.5 0.5 0  3 0.5 0  3.5 0.5 0  4 0.5 0  4.5 0.5 0  5 0.5 0  5.5 0.5 0  6 0.5 0  6.5 0.5 0  7 0.5 0  7.5 0.5 0  8 0.5 0  8.5 0.5 0  9 0.5 0  9.5 0.5 0  10 0.5 0  10.5 0.5 0  11 0.5 0  11.5 0.5 0  12 0.5 0  12.5 0.5 0  13 0.5 0  13.5 0.5 0  14 0.5 0  14.5 0.5 0  15 0.5 0  15.5 0.5 0  16 0.5 0  16.5 0.5 0  17 0.5 0  17.5 0.5 0  18 0.5 0  18.5 0.5 0  19 0.5 0  19.5 0.5 0  20 0.5 0  0 1 0  0.5 1 0  1 1 0  1.5 1 0  2 1 0  2.5 1 0  3 1 0  3.5 1 0  4 1 0  4.5 1 0  5 1 0  5.5 1 0  6 1 0  6.5 1 0  7 1 0  7.5 1 0  8 1 0  8.5 1 0  9 1 0  9.5 1 0  10 1 0  10.5 1 0  11 1 0  11.5 1 0  12 1 0  12.5 1 0  13 1 0  13.5 1 0  14 1 0  14.5 1 0  15 1 0  15.5 1 0  16 1 0  16.5 1 0  17 1 0  17.5 1 0  18 1 0  18.5 1 0  19 1 0  19.5 1 0  20 1 0  0 1.5 0  0.5 1.5 0  1 1.5 0  1.5 1.5 0  2 1.5 0  2.5 1.5 0  3 1.5 0  3.5 1.5 0  4 1.5 0  4.5 1.5 0  5 1.5 0  5.5 1.5 0  6 1.5 0  6.5 1.5 0  7 1.5 0  7.5 1.5 0  8 1.5 0  8.5 1.5 0  9 1.5 0  9.5 1.5 0  10 1.5 0  10.5 1.5 0  11 1.5 0  11.5 1.5 0  12 1.5 0  12.5 1.5 0  13 1.5 0  13.5 1.5 0  14 1.5 0  14.5 1.5 0  15 1.5 0  15.5 1.5 0  16 1.5 0  16.5 1.5 0  17 1.5 0  17.5 1.5 0  18 1.5 0  18.5 1.5 0  19 1.5 0  19.5 1.5 0  20 1.5 0  0 2 0  0.5 2 0  1 2 0  1.5 2 0  2 2 0  2.5 2 0  3 2 0  3.5 2 0  4 2 0  4.5 2 0  5 2 0  5.5 2 0  6 2 0  6.5 2 0  7 2 0  7.5 2 0  8 2 0  8.5 2 0  9 2 0  9.5 2 0  10 2 0  10.5 2 0  11 2 0  11.5 2 0  12 2 0  12.5 2 0  13 2 0  13.5 2 0  14 2 0  14.5 2 0  15 2 0  15.5 2 0  16 2 0  16.5 2 0  17 2 0  17.5 2 0  18 2 0  18.5 2 0  19 2 0  19.5 2 0  20 2 0  0 2.5 0  0.5 2.5 0  1 2.5 0  1.5 2.5 0  2 2.5 0  2.5 2.5 0  3 2.5 0  3.5 2.5 0  4 2.5 0  4.5 2.5 0  5 2.5 0  5.5 2.5 0  6 2.5 0  6.5 2.5 0  7 2.5 0  7.5 2.5 0  8 2.5 0  8.5 2.5 0  9 2.5 0  9.5 2.5 0  10 2.5 0  10.5 2.5 0  11 2.5 0  11.5 2.5 0  12 2.5 0  12.5 2.5 0  13 2.5 0  13.5 2.5 0  14 2.5 0  14.5 2.5 0  15 2.5 0  15.5 2.5 0  16 2.5 0  16.5 2.5 0  17 2.5 0  17.5 2.5 0  18 2.5 0  18.5 2.5 0  19 2.5 0  19.5 2.5 0  20 2.5 0  0 3 0  0.5 3 0  1 3 0  1.5 3 0  2 3 0  2.5 3 0  3 3 0  3.5 3 0  4 3 0  4.5 3 0  5 3 0  5.5 3 0  6 3 0  6.5 3 0  7 3 0  7.5 3 0  8 3 0  8.5 3 0  9 3 0  9.5 3 0  10 3 0  10.5 3 0  11 3 0  11.5 3 0  12 3 0  12.5 3 0  13 3 0  13.5 3 0  14 3 0  14.5 3 0  15 3 0  15.5 3 0  16 3 0  16.5 3 0  17 3 0  17.5 3 0  18 3 0  18.5 3 0  19 3 0  19.5 3 0  20 3 0  0 3.5 0  0.5 3.5 0  1 3.5 0  1.5 3.5 0  2 3.5 0  2.5 3.5 0  3 3.5 0  3.5 3.5 0  4 3.5 0  4.5 3.5 0  5 3.5 0  5.5 3.5 0  6 3.5 0  6.5 3.5 0  7 3.5 0  7.5 3.5 0  8 3.5 0  8.5 3.5 0  9 3.5 0  9.5 3.5 0  10 3.5 0  10.5 3.5 0  11 3.5 0  11.5 3.5 0  12 3.5 0  12.5 3.5 0  13 3.5 0  13.5 3.5 0  14 3.5 0  14.5 3.5 0  15 3.5 0  15.5 3.5 0  16 3.5 0  16.5 3.5 0  17 3.5 0  17.5 3.5 0  18 3.5 0  18.5 3.5 0  19 3.5 0  19.5 3.5 0  20 3.5 0  0 4 0  0.5 4 0  1 4 0  1.5 4 0  2 4 0  2.5 4 0  3 4 0  3.5 4 0  4 4 0  4.5 4 0  5 4 0  5.5 4 0  6 4 0  6.5 4 0  7 4 0  7.5 4 0  8 4 0  8.5 4 0  9 4 0  9.5 4 0  10 4 0  10.5 4 0  11 4 0  11.5 4 0  12 4 0  12.5 4 0  13 4 0  13.5 4 0  14 4 0  14.5 4 0  15 4 0  15.5 4 0  16 4 0  16.5 4 0  17 4 0  17.5 4 0  18 4 0  18.5 4 0  19 4 0  19.5 4 0  20 4 0  0 4.5 0  0.5 4.5 0  1 4.5 0  1.5 4.5 0  2 4.5 0  2.5 4.5 0  3 4.5 0  3.5 4.5 0  4 4.5 0  4.5 4.5 0  5 4.5 0  5.5 4.5 0  6 4.5 0  6.5 4.5 0  7 4.5 0  7.5 4.5 0  8 4.5 0  8.5 4.5 0  9 4.5 0  9.5 4.5 0  10 4.5 0  10.5 4.5 0  11 4.5 0  11.5 4.5 0  12 4.5 0  12.5 4.5 0  13 4.5 0  13.5 4.5 0  14 4.5 0  14.5 4.5 0  15 4.5 0  15.5 4.5 0  16 4.5 0  16.5 4.5 0  17 4.5 0  17.5 4.5 0  18 4.5 0  18.5 4.5 0  19 4.5 0  19.5 4.5 0  20 4.5 0  0 5 0  0.5 5 0  1 5 0  1.5 5 0  2 5 0  2.5 5 0  3 5 0  3.5 5 0  4 5 0  4.5 5 0  5 5 0  5.5 5 0  6 5 0  6.5 5 0  7 5 0  7.5 5 0  8 5 0  8.5 5 0  9 5 0  9.5 5 0  10 5 0  10.5 5 0  11 5 0  11.5 5 0  12 5 0  12.5 5 0  13 5 0  13.5 5 0  14 5 0  14.5 5 0  15 5 0  15.5 5 0  16 5 0  16.5 5 0  17 5 0  17.5 5 0  18 5 0  18.5 5 0  19 5 0  19.5 5 0  20 5 0  0 5.5 0  0.5 5.5 0  1 5.5 0  1.5 5.5 0  2 5.5 0  2.5 5.5 0  3 5.5 0  3.5 5.5 0  4 5.5 0  4.5 5.5 0  5 5.5 0  5.5 5.5 0  6 5.5 0  6.5 5.5 0  7 5.5 0  7.5 5.5 0  8 5.5 0  8.5 5.5 0  9 5.5 0  9.5 5.5 0  10 5.5 0  10.5 5.5 0  11 5.5 0  11.5 5.5 0  12 5.5 0  12.5 5.5 0  13 5.5 0  13.5 5.5 0  14 5.5 0  14.5 5.5 0  15 5.5 0  15.5 5.5 0  16 5.5 0  16.5 5.5 0  17 5.5 0  17.5 5.5 0  18 5.5 0  18.5 5.5 0  19 5.5 0  19.5 5.5 0  20 5.5 0  0 6 0  0.5 6 0  1 6 0  1.5 6 0  2 6 0  2.5 6 0  3 6 0  3.5 6 0  4 6 0  4.5 6 0  5 6 0  5.5 6 0  6 6 0  6.5 6 0  7 6 0  7.5 6 0  8 6 0  8.5 6 0  9 6 0  9.5 6 0  10 6 0  10.5 6 0  11 6 0  11.5 6 0  12 6 0  12.5 6 0  13 6 0  13.5 6 0  14 6 0  14.5 6 0  15 6 0  15.5 6 0  16 6 0  16.5 6 0  17 6 0  17.5 6 0  18 6 0  18.5 6 0  19 6 0  19.5 6 0  20 6 0  0 6.5 0  0.5 6.5 0  1 6.5 0  1.5 6.5 0  2 6.5 0  2.5 6.5 0  3 6.5 0  3.5 6.5 0  4 6.5 0  4.5 6.5 0  5 6.5 0  5.5 6.5 0  6 6.5 0  6.5 6.5 0  7 6.5 0  7.5 6.5 0  8 6.5 0  8.5 6.5 0  9 6.5 0  9.5 6.5 0  10 6.5 0  10.5 6.5 0  11 6.5 0  11.5 6.5 0  12 6.5 0  12.5 6.5 0  13 6.5 0  13.5 6.5 0  14 6.5 0  14.5 6.5 0  15 6.5 0  15.5 6.5 0  16 6.5 0  16.5 6.5 0  17 6.5 0  17.5 6.5 0  18 6.5 0  18.5 6.5 0  19 6.5 0  19.5 6.5 0  20 6.5 0  0 7 0  0.5 7 0  1 7 0  1.5 7 0  2 7 0  2.5 7 0  3 7 0  3.5 7 0  4 7 0  4.5 7 0  5 7 0  5.5 7 0  6 7 0  6.5 7 0  7 7 0  7.5 7 0  8 7 0  8.5 7 0  9 7 0  9.5 7 0  10 7 0  10.5 7 0  11 7 0  11.5 7 0  12 7 0  12.5 7 0  13 7 0  13.5 7 0  14 7 0  14.5 7 0  15 7 0  15.5 7 0  16 7 0  16.5 7 0  17 7 0  17.5 7 0  18 7 0  18.5 7 0  19 7 0  19.5 7 0  20 7 0  0 7.5 0  0.5 7.5 0  1 7.5 0  1.5 7.5 0  2 7.5 0  2.5 7.5 0  3 7.5 0  3.5 7.5 0  4 7.5 0  4.5 7.5 0  5 7.5 0  5.5 7.5 0  6 7.5 0  6.5 7.5 0  7 7.5 0  7.5 7.5 0  8 7.5 0  8.5 7.5 0  9 7.5 0  9.5 7.5 0  10 7.5 0  10.5 7.5 0  11 7.5 0  11.5 7.5 0  12 7.5 0  12.5 7.5 0  13 7.5 0  13.5 7.5 0  14 7.5 0  14.5 7.5 0  15 7.5 0  15.5 7.5 0  16 7.5 0  16.5 7.5 0  17 7.5 0  17.5 7.5 0  18 7.5 0  18.5 7.5 0  19 7.5 0  19.5 7.5 0  20 7.5 0  0 8 0  0.5 8 0  1 8 0  1.5 8 0  2 8 0  2.5 8 0  3 8 0  3.5 8 0  4 8 0  4.5 8 0  5 8 0  5.5 8 0  6 8 0  6.5 8 0  7 8 0  7.5 8 0  8 8 0  8.5 8 0  9 8 0  9.5 8 0  10 8 0  10.5 8 0  11 8 0  11.5 8 0  12 8 0  12.5 8 0  13 8 0  13.5 8 0  14 8 0  14.5 8 0  15 8 0  15.5 8 0  16 8 0  16.5 8 0  17 8 0  17.5 8 0  18 8 0  18.5 8 0  19 8 0  19.5 8 0  20 8 0  0 8.5 0  0.5 8.5 0  1 8.5 0  1.5 8.5 0  2 8.5 0  2.5 8.5 0  3 8.5 0  3.5 8.5 0  4 8.5 0  4.5 8.5 0  5 8.5 0  5.5 8.5 0  6 8.5 0  6.5 8.5 0  7 8.5 0  7.5 8.5 0  8 8.5 0  8.5 8.5 0  9 8.5 0  9.5 8.5 0  10 8.5 0  10.5 8.5 0  11 8.5 0  11.5 8.5 0  12 8.5 0  12.5 8.5 0  13 8.5 0  13.5 8.5 0  14 8.5 0  14.5 8.5 0  15 8.5 0  15.5 8.5 0  16 8.5 0  16.5 8.5 0  17 8.5 0  17.5 8.5 0  18 8.5 0  18.5 8.5 0  19 8.5 0  19.5 8.5 0  20 8.5 0  0 9 0  0.5 9 0  1 9 0  1.5 9 0  2 9 0  2.5 9 0  3 9 0  3.5 9 0  4 9 0  4.5 9 0  5 9 0  5.5 9 0  6 9 0  6.5 9 0  7 9 0  7.5 9 0  8 9 0  8.5 9 0  9 9 0  9.5 9 0  10 9 0  10.5 9 0  11 9 0  11.5 9 0  12 9 0  12.5 9 0  13 9 0  13.5 9 0  14 9 0  14.5 9 0  15 9 0  15.5 9 0  16 9 0  16.5 9 0  17 9 0  17.5 9 0  18 9 0  18.5 9 0  19 9 0  19.5 9 0  20 9 0  0 9.5 0  0.5 9.5 0  1 9.5 0  1.5 9.5 0  2 9.5 0  2.5 9.5 0  3 9.5 0  3.5 9.5 0  4 9.5 0  4.5 9.5 0  5 9.5 0  5.5 9.5 0  6 9.5 0  6.5 9.5 0  7 9.5 0  7.5 9.5 0  8 9.5 0  8.5 9.5 0  9 9.5 0  9.5 9.5 0  10 9.5 0  10.5 9.5 0  11 9.5 0  11.5 9.5 0  12 9.5 0  12.5 9.5 0  13 9.5 0  13.5 9.5 0  14 9.5 0  14.5 9.5 0  15 9.5 0  15.5 9.5 0  16 9.5 0  16.5 9.5 0  17 9.5 0  17.5 9.5 0  18 9.5 0  18.5 9.5 0  19 9.5 0  19.5 9.5 0  20 9.5 0  0 10 0  0.5 10 0  1 10 0  1.5 10 0  2 10 0  2.5 10 0  3 10 0  3.5 10 0  4 10 0  4.5 10 0  5 10 0  5.5 10 0  6 10 0  6.5 10 0  7 10 0  7.5 10 0  8 10 0  8.5 10 0  9 10 0  9.5 10 0  10 10 0  10.5 10 0  11 10 0  11.5 10 0  12 10 0  12.5 10 0  13 10 0  13.5 10 0  14 10 0  14.5 10 0  15 10 0  15.5 10 0  16 10 0  16.5 10 0  17 10 0  17.5 10 0  18 10 0  18.5 10 0  19 10 0  19.5 10 0  20 10 0  0 10.5 0  0.5 10.5 0  1 10.5 0  1.5 10.5 0  2 10.5 0  2.5 10.5 0  3 10.5 0  3.5 10.5 0  4 10.5 0  4.5 10.5 0  5 10.5 0  5.5 10.5 0  6 10.5 0  6.5 10.5 0  7 10.5 0  7.5 10.5 0  8 10.5 0  8.5 10.5 0  9 10.5 0  9.5 10.5 0  10 10.5 0  10.5 10.5 0  11 10.5 0  11.5 10.5 0  12 10.5 0  12.5 10.5 0  13 10.5 0  13.5 10.5 0  14 10.5 0  14.5 10.5 0  15 10.5 0  15.5 10.5 0  16 10.5 0  16.5 10.5 0  17 10.5 0  17.5 10.5 0  18 10.5 0  18.5 10.5 0  19 10.5 0  19.5 10.5 0  20 10.5 0  0 11 0  0.5 11 0  1 11 0  1.5 11 0  2 11 0  2.5 11 0  3 11 0  3.5 11 0  4 11 0  4.5 11 0  5 11 0  5.5 11 0  6 11 0  6.5 11 0  7 11 0  7.5 11 0  8 11 0  8.5 11 0  9 11 0  9.5 11 0  10 11 0  10.5 11 0  11 11 0  11.5 11 0  12 11 0  12.5 11 0  13 11 0  13.5 11 0  14 11 0  14.5 11 0  15 11 0  15.5 11 0  16 11 0  16.5 11 0  17 11 0  17.5 11 0  18 11 0  18.5 11 0  19 11 0  19.5 11 0  20 11 0  0 11.5 0  0.5 11.5 0  1 11.5 0  1.5 11.5 0  2 11.5 0  2.5 11.5 0  3 11.5 0  3.5 11.5 0  4 11.5 0  4.5 11.5 0  5 11.5 0  5.5 11.5 0  6 11.5 0  6.5 11.5 0  7 11.5 0  7.5 11.5 0  8 11.5 0  8.5 11.5 0  9 11.5 0  9.5 11.5 0  10 11.5 0  10.5 11.5 0  11 11.5 0  11.5 11.5 0  12 11.5 0  12.5 11.5 0  13 11.5 0  13.5 11.5 0  14 11.5 0  14.5 11.5 0  15 11.5 0  15.5 11.5 0  16 11.5 0  16.5 11.5 0  17 11.5 0  17.5 11.5 0  18 11.5 0  18.5 11.5 0  19 11.5 0  19.5 11.5 0  20 11.5 0  0 12 0  0.5 12 0  1 12 0  1.5 12 0  2 12 0  2.5 12 0  3 12 0  3.5 12 0  4 12 0  4.5 12 0  5 12 0  5.5 12 0  6 12 0  6.5 12 0  7 12 0  7.5 12 0  8 12 0  8.5 12 0  9 12 0  9.5 12 0  10 12 0  10.5 12 0  11 12 0  11.5 12 0  12 12 0  12.5 12 0  13 12 0  13.5 12 0  14 12 0  14.5 12 0  
[...]
<PointData  Vectors="f_4890-0"> 
<DataArray  type="Float64"  Name="f_4890-0"  NumberOfComponents="3" format="ascii">0.0000000000000000e+00 0.0000000000000000e+00 0.0000000000000000e+00  -1.0503902969874853e-08 0.0000000000000000e+00 0.0000000000000000e+00  -6.1992263049344769e-08 0.0000000000000000e+00 0.0000000000000000e+00  -2.0173238044453152e-07 0.0000000000000000e+00 0.0000000000000000e+00  -4.7321333051618659e-07 0.0000000000000000e+00 0.0000000000000000e+00  -9.1934046904052172e-07 0.0000000000000000e+00 0.0000000000000000e+00  -1.5823228793155458e-06 0.0000000000000000e+00 0.0000000000000000e+00  -2.5034072853620148e-06 0.0000000000000000e+00 0.0000000000000000e+00  -3.7226267843095595e-06 0.0000000000000000e+00 0.0000000000000000e+00  -5.2785487144996908e-06 0.0000000000000000e+00 0.0000000000000000e+00  -7.2080100654868854e-06 0.0000000000000000e+00 0.0000000000000000e+00  -9.5458355138863714e-06 0.0000000000000000e+00 0.0000000000000000e+00  -1.2324536106942420e-05 0.0000000000000000e+00 0.0000000000000000e+00  -1.5573988118492050e-05 0.0000000000000000e+00 0.0000000000000000e+00  -1.9321092640137329e-05 0.0000000000000000e+00 0.0000000000000000e+00  -2.3589417480964401e-05 0.0000000000000000e+00 0.0000000000000000e+00  -2.8398823953249106e-05 0.0000000000000000e+00 0.0000000000000000e+00  -3.3765082218121762e-05 0.0000000000000000e+00 0.0000000000000000e+00  -3.9699479959279962e-05 0.0000000000000000e+00 0.0000000000000000e+00  -4.6208430197055519e-05 0.0000000000000000e+00 0.0000000000000000e+00  -5.3293085040726651e-05 0.0000000000000000e+00 0.0000000000000000e+00  -6.0948962748733952e-05 0.0000000000000000e+00 0.0000000000000000e+00  -6.9165595421188421e-05 0.0000000000000000e+00 0.0000000000000000e+00  -7.7926203327516728e-05 0.0000000000000000e+00 0.0000000000000000e+00  -8.7207397606497660e-05 0.0000000000000000e+00 0.0000000000000000e+00  -9.6978902575615313e-05 0.0000000000000000e+00 0.0000000000000000e+00  -1.0720326302872414e-04 0.0000000000000000e+00 0.0000000000000000e+00  -1.1783543772723048e-04 0.0000000000000000e+00 0.0000000000000000e+00  -1.2882201607624210e-04 0.0000000000000000e+00 0.0000000000000000e+00  -1.4009936407907743e-04 0.0000000000000000e+00 0.0000000000000000e+00  -1.5158885273192256e-04 0.0000000000000000e+00 0.0000000000000000e+00  -1.6318419688301385e-04 0.0000000000000000e+00 0.0000000000000000e+00  -1.7471739625237533e-04 0.0000000000000000e+00 0.0000000000000000e+00  -1.8586639533551308e-04 0.0000000000000000e+00 0.0000000000000000e+00  -1.9590378708363290e-04 0.0000000000000000e+00 0.0000000000000000e+00  -2.0301387381036880e-04 0.0000000000000000e+00 0.0000000000000000e+00  -2.0245395817594802e-04 0.0000000000000000e+00 0.0000000000000000e+00  -1.8171695458265680e-04 0.0000000000000000e+00 0.0000000000000000e+00  -1.0841843566200204e-04 0.0000000000000000e+00 0.0000000000000000e+00  9.7040968204742853e-05 0.0000000000000000e+00 0.0000000000000000e+00  6.1292829035184456e-04 0.0000000000000000e+00 0.0000000000000000e+00  0.0000000000000000e+00 -1.0503900798868497e-08 0.0000000000000000e+00  1.5456002285751693e-08 1.5456002248023513e-08 0.0000000000000000e+00  -1.4897243575196229e-08 8.2964330386208067e-08 0.0000000000000000e+00  -1.3294055142028466e-07 1.9307080360856850e-07 0.0000000000000000e+00  -3.8247854557348952e-07 3.4622919752662415e-07 0.0000000000000000e+00  -8.0662466995189028e-07 5.4203906885606402e-07 0.0000000000000000e+00  -1.4476530344907235e-06 7.7967015105427804e-07 0.0000000000000000e+00  -2.3468409467814859e-06 1.0580186772549571e-06 0.0000000000000000e+00  -3.5442526596823888e-06 1.3757377724289551e-06 0.0000000000000000e+00  -5.0784959713227861e-06 1.7312295230589796e-06 0.0000000000000000e+00  -6.9864596858757280e-06 2.1226269163277247e-06 0.0000000000000000e+00  -9.3030322484718835e-06 2.5477732755401907e-06 0.0000000000000000e+00  -1.2060800698361148e-05 3.0042013434200799e-06 0.0000000000000000e+00  -1.5289729599284948e-05 3.4891128745422291e-06 0.0000000000000000e+00  -1.9016820425367483e-05 3.9993595526052067e-06 0.0000000000000000e+00  -2.3265752896326852e-05 4.5314260744232605e-06 0.0000000000000000e+00  -2.8056510747702602e-05 5.0814163882419286e-06 0.0000000000000000e+00  -3.3404995545232136e-05 5.6450441870278933e-06 0.0000000000000000e+00  -3.9322633267986214e-05 6.2176287017237577e-06 0.0000000000000000e+00  -4.5815979486952844e-05 6.7940968673482666e-06 0.0000000000000000e+00  -5.2886329948385997e-05 7.3689927421442186e-06 0.0000000000000000e+00  -6.0529344048831860e-05 7.9364946555583878e-06 0.0000000000000000e+00  -6.8734688828015158e-05 8.4904399997416468e-06 0.0000000000000000e+00  -7.7485709907834023e-05 9.0243564147947456e-06 0.0000000000000000e+00  -8.6759132156333634e-05 9.5314961628254543e-06 0.0000000000000000e+00  -9.6524783155778197e-05 1.0004867156888172e-05 0.0000000000000000e+00  -1.0674530865386342e-04 1.0437247811152727e-05 0.0000000000000000e+00  -1.1737578868981895e-04 1.0821161595371646e-05 0.0000000000000000e+00  -1.2836300647791287e-04 1.1148765719685847e-05 0.0000000000000000e+00  -1.3964370572669372e-04 1.1411568812054220e-05 0.0000000000000000e+00  -1.5114004498763910e-04 1.1599821932837189e-05 0.0000000000000000e+00  -1.6274736933795413e-04 1.1701314855237740e-05 0.0000000000000000e+00  -1.7430090164138201e-04 1.1699179306156260e-05 0.0000000000000000e+00  -1.8548442679751411e-04 1.1568335253488883e-05 0.0000000000000000e+00  -1.9557936052560035e-04 1.1271107431485695e-05 0.0000000000000000e+00  -2.0277730736941769e-04 1.0756197109770531e-05 0.0000000000000000e+00  -2.0231884732590464e-04 9.9750214256121900e-06 0.0000000000000000e+00  -1.8158895325863226e-04 8.9444217040705564e-06 0.0000000000000000e+00  -1.0789191421876478e-04 7.8668924553952606e-06 0.0000000000000000e+00  9.8788519547190484e-05 7.1039025336956288e-06 0.0000000000000000e+00  6.1461517024507552e-04 6.0453981691800303e-06 0.0000000000000000e+00  0.0000000000000000e+00 -6.1992261531192345e-08 0.0000000000000000e+00  8.2964331673080144e-08 -1.4897244327508286e-08 0.0000000000000000e+00  1.1899485658485009e-07 1.1899485556400463e-07 0.0000000000000000e+00  6.6972202190798900e-08 3.3958149683244386e-07 0.0000000000000000e+00  -1.1655795677347703e-07 6.4640530209418523e-07 0.0000000000000000e+00  -4.7468499863223575e-07 1.0383876127557677e-06 0.0000000000000000e+00  -1.0497487563608175e-06 1.5139084556077162e-06 0.0000000000000000e+00  -1.8831107406178777e-06 2.0708369938869667e-06 0.0000000000000000e+00  -3.0149350455101613e-06 2.7065379347939702e-06 0.0000000000000000e+00  -4.4839525896182676e-06 3.4178572223871952e-06 0.0000000000000000e+00  -6.3272048177503409e-06 4.2010937079194386e-06 0.0000000000000000e+00  -8.5797663285243348e-06 5.0519630484290695e-06 0.0000000000000000e+00  -1.1274446164484790e-05 5.9655581776305249e-06 0.0000000000000000e+00  -1.4441467773628693e-05 6.9363092492896539e-06 0.0000000000000000e+00  -1.8108128256200826e-05 7.9579453553809014e-06 0.0000000000000000e+00  -2.2298438276967519e-05 9.0234601273513916e-06 0.0000000000000000e+00  -2.7032745045514725e-05 1.0125083394776694e-05 0.0000000000000000e+00  -3.2327341827529218e-05 1.1254261151853595e-05 0.0000000000000000e+00  -3.8194068614484002e-05 1.2401646082992828e-05 0.0000000000000000e+00  -4.4639909773154433e-05 1.3557100839816798e-05 0.0000000000000000e+00  -5.1666595574774431e-05 1.4709715948207770e-05 0.0000000000000000e+00  -5.9270215433056567e-05 1.5847843581699580e-05 0.0000000000000000e+00  -6.7440851109708716e-05 1.6959147385137133e-05 0.0000000000000000e+00  -7.6162237586536267e-05 1.8030666604291794e-05 0.0000000000000000e+00  -8.5411456636371103e-05 1.9048889704929082e-05 0.0000000000000000e+00  -9.5158660361924390e-05 1.9999827453207620e-05 0.0000000000000000e+00  -1.0536680139876452e-04 2.0869066718524968e-05 0.0000000000000000e+00  -1.1599129227328959e-04 2.1641771627642890e-05 0.0000000000000000e+00  -1.2697937029969902e-04 2.2302574362022103e-05 0.0000000000000000e+00  -1.3826854415396197e-04 2.2835259945778252e-05 0.0000000000000000e+00  -1.4978238803023679e-04 2.3222097869656653e-05 0.0000000000000000e+00  -1.6141884973796766e-04 2.3442631123966019e-05 0.0000000000000000e+00  -1.7301757402218566e-04 2.3471795693159117e-05 0.0000000000000000e+00  -1.8426860993160646e-04 2.3277696521086207e-05 0.0000000000000000e+00  -1.9445836141883602e-04 2.2820862475039919e-05 0.0000000000000000e+00  -2.0176909816344197e-04 2.2060302432223611e-05 0.0000000000000000e+00  -2.0138200591154743e-04 2.0976724827839968e-05 0.0000000000000000e+00  -1.8050816624183338e-04 1.9620610479061076e-05 0.0000000000000000e+00  -1.0614317837725539e-04 1.8147347965437504e-05 0.0000000000000000e+00  1.0181392811360765e-04 1.6650472056954884e-05 0.0000000000000000e+00  6.1796957491788360e-04 1.4431051349208261e-05 0.0000000000000000e+00  0.0000000000000000e+00 -2.0173238028177890e-07 0.0000000000000000e+00  1.9307080478861817e-07 -1.3294055276073261e-07 0.0000000000000000e+00  3.3958149706720556e-07 6.6972201570768903e-08 0.0000000000000000e+00  3.9761502179383475e-07 3.9761502260951123e-07 0.0000000000000000e+00  3.2402575207975987e-07 8.5791299537718726e-07 0.0000000000000000e+00  7.5769446405443092e-08 1.4460904384018507e-06 0.0000000000000000e+00  -3.8953787928826105e-07 2.1596653272589180e-06 0.0000000000000000e+00  -1.1133578305374669e-06 2.9954540890792570e-06 0.0000000000000000e+00  -2.1360025731757673e-06 3.9495486624867820e-06 0.0000000000000000e+00  -3.4963997996786029e-06 5.0172758930370178e-06 0.0000000000000000e+00  -5.2318403633200620e-06 6.1931467828364566e-06 0.0000000000000000e+00  -7.3777051529385783e-06 7.4707993985564814e-06 0.0000000000000000e+00  -9.9671697122812491e-06 8.8429383537975291e-06 0.0000000000000000e+00  -1.3030886051426305e-05 1.0301273694294240e-05 0.0000000000000000e+00  -1.6596641935631003e-05 1.1836462081437871e-05 0.0000000000000000e+00  -2.0688998791649338e-05 1.3438053374848706e-05 0.0000000000000000e+00  -2.5328910365559465e-05 1.5094445913360672e-05 0.0000000000000000e+00  -3.0533325377030773e-05 1.6792853941488391e-05 0.0000000000000000e+00  -3.6314778629378101e-05 1.8519290724134237e-05 0.0000000000000000e+00  -4.2680976326941702e-05 2.0258570802192531e-05 0.0000000000000000e+00  -4.9634382644406489e-05 2.1994334486321510e-05 0.0000000000000000e+00  -5.7171815762690497e-05 2.3709096935130400e-05 0.0000000000000000e+00  -6.5284062480663933e-05 2.5384322808531580e-05 0.0000000000000000e+00  -7.3955520652265136e-05 2.7000525284348505e-05 0.0000000000000000e+00  -8.3163877143647852e-05 2.8537384692573594e-05 0.0000000000000000e+00  -9.2879823032185498e-05 2.9973876574695353e-05 0.0000000000000000e+00  -1.0306679008816748e-04 3.1288390632150802e-05 0.0000000000000000e+00  -1.1368064252865086e-04 3.2458809715408526e-05 0.0000000000000000e+00  -1.2466911697909386e-04 3.3462500999307015e-05 0.0000000000000000e+00  -1.3597040527786548e-04 3.4276152112229776e-05 0.0000000000000000e+00  -1.4750914895315383e-04 3.4875374864465926e-05 0.0000000000000000e+00  -1.5918493866962755e-04 3.5234035725416327e-05 0.0000000000000000e+00  -1.7083950320825574e-04 3.5323447944256287e-05 0.0000000000000000e+00  -1.8216401288597949e-04 3.5112057384067752e-05 0.0000000000000000e+00  -1.9244013561343532e-04 3.4567298408898438e-05 0.0000000000000000e+00  -1.9982732833674608e-04 3.3662737153798971e-05 0.0000000000000000e+00  -1.9944392064098523e-04 3.2393472662190806e-05 0.0000000000000000e+00  -1.7838052729918547e-04 3.0794271889774167e-05 0.0000000000000000e+00  -1.0351031234283235e-04 2.8926072584435164e-05 0.0000000000000000e+00  1.0511703198190018e-04 2.6753120286760173e-05 0.0000000000000000e+00  6.2122753659762681e-04 2.3897502628145781e-05 0.0000000000000000e+00  0.0000000000000000e+00 -4.7321333205290251e-07 0.0000000000000000e+00  3.4622919731986335e-07 -3.8247854543059908e-07 0.0000000000000000e+00  6.4640530127241821e-07 -1.1655795646636737e-07 0.0000000000000000e+00  8.5791299451527830e-07 3.2402575346131492e-07 0.0000000000000000e+00  9.3771019854460542e-07 9.3771019882418770e-07 0.0000000000000000e+00  8.4277735315309105e-07 1.7220750012335194e-06 0.0000000000000000e+00  5.3066901429700278e-07 2.6738234174740609e-06 0.0000000000000000e+00  -4.0203238256261992e-08 3.7887607660913324e-06 0.0000000000000000e+00  -9.1034299053576621e-07 5.0617506987803173e-06 0.0000000000000000e+00  -2.1189394268755994e-06 6.4866542186760693e-06 0.0000000000000000e+00  -3.7036211540986792e-06 8.0562569944581312e-06 0.0000000000000000e+00  -5.7001886789538310e-06 9.7621891950453325e-06 0.0000000000000000e+00  -8.1423233957712771e-06 1.1594841333329178e-05 0.0000000000000000e+00  -1.1061272001805153e-05 1.3543279441474179e-05 0.0000000000000000e+00  -1.4485506115232407e-05 1.5595163095694186e-05 0.0000000000000000e+00  -1.8440357784314795e-05 1.7736670252159920e-05 0.0000000000000000e+00  -2.2947632586121136e-05 1.9952433186609425e-05 0.0000000000000000e+00  -2.8025203184401203e-05 2.2225490208823005e-05 0.0000000000000000e+00  -3.3686587516281504e-05 2.4537258020096715e-05 0.0000000000000000e+00  -3.9940517213388119e-05 2.6867529594433322e-05 0.0000000000000000e+00  -4.6790503365671964e-05 2.9194502143560160e-05 0.0000000000000000e+00  -5.4234408219117820e-05 3.1494838990496367e-05 0.0000000000000000e+00  -6.2264032768724067e-05 3.3743767776269853e-05 0.0000000000000000e+00  -7.0864731018894402e-05 3.5915215188064339e-05 0.0000000000000000e+00  -8.0015061035116819e-05 3.7981975048335693e-05 0.0000000000000000e+00  -8.9686478221978939e-05 3.9915901669715685e-05 0.0000000000000000e+00  -9.9843060070398958e-05 4.1688113828410637e-05 0.0000000000000000e+00  -1.1044120274646479e-04 4.3269186385594311e-05 0.0000000000000000e+00  -1.2142908765252495e-04 4.4629298278076672e-05 0.0000000000000000e+00  -1.3274530845344470e-04 4.5738302277645881e-05 0.0000000000000000e+00  -1.4431489127357416e-04 4.6565697124964281e-05 0.0000000000000000e+00  -1.5603767973521951e-04 4.7080544955027044e-05 0.0000000000000000e+00  -1.6775495624750646e-04 4.7251535845561735e-05 0.0000000000000000e+00  -1.7915506750305855e-04 4.7047709653222496e-05 0.0000000000000000e+00  -1.8951065625914050e-04 4.6440760568996288e-05 0.0000000000000000e+00  -1.9695930761879521e-04 4.5409947383462910e-05 0.0000000000000000e+00  -1.9657801321140638e-04 4.3949098510236009e-05 0.0000000000000000e+00  -1.7540389927974220e-04 4.2069759045972831e-05 0.0000000000000000e+00  -1.0029777170078423e-04 3.9785065298475834e-05 0.0000000000000000e+00  1.0854177452127036e-04 3.7059111866254601e-05 0.0000000000000000e+00  6.2450271924821478e-04 3.3763209782258373e-05 0.0000000000000000e+00  0.0000000000000000e+00 -9.1934046952031273e-07 0.0000000000000000e+00  5.4203906822383418e-07 -8.0662466992989411e-07 0.0000000000000000e+00  1.0383876119178887e-06 -4.7468499776338387e-07 0.0000000000000000e+00  1.4460904370124174e-06 7.5769446791783475e-08 0.0000000000000000e+00  1.7220750002218790e-06 8.4277735356530874e-07 0.0000000000000000e+00  1.8233294441489785e-06 1.8233294450493981e-06 0.0000000000000000e+00  1.7073375040262227e-06 3.0133709189938458e-06 0.0000000000000000e+00  1.3323623665371618e-06 4.4077607053950202e-06 0.0000000000000000e+00  6.5767076530360351e-07 6.0002075109073613e-06 0.0000000000000000e+00  -3.5624578358006233e-07 7.7831878953343316e-06 0.0000000000000000e+00  -1.7474339154388332e-06 9.7478512143133045e-06 0.0000000000000000e+00  -3.5522190203740341e-06 1.1883915461430637e-05 0.0000000000000000e+00  -5.8049205640694141e-06 1.4179557751595395e-05 0.0000000000000000e+00  -8.5375404976655873e-06 1.6621303375356990e-05 0.0000000000000000e+00  -1.1779424001464750e-05 1.9193917685821960e-05 0.0000000000000000e+00  -1.5556892671823943e-05 2.1880305700657399e-05 0.0000000000000000e+00  -1.9892851291067758e-05 2.4661424787782006e-05 0.0000000000000000e+00  -2.4806370521793259e-05 2.7516216362667107e-05 0.0000000000000000e+00  -3.0312249259284305e-05 3.0421562911970118e-05 0.0000000000000000e+00  -3.6420561950523949e-05 3.3352276807311076e-05 0.0000000000000000e+00  -4.3136197939391598e-05 3.6281127227477604e-05 0.0000000000000000e+00  -5.0458401709168212e-05 3.9178910843657696e-05 0.0000000000000000e+00  -5.8380324713324270e-05 4.2014570713551167e-05 0.0000000000000000e+00  -6.6888600885113707e-05 4.4755365742156722e-05 0.0000000000000000e+00  -7.5962957990980017e-05 4.7367090090638321e-05 0.0000000000000000e+00  -8.5575872994263759e-05 4.9814337855395734e-05 0.0000000000000000e+00  -9.5692263843626232e-05 5.2060803457929731e-05 0.0000000000000000e+00  -1.0626916037885478e-04 5.4069603157339700e-05 0.0000000000000000e+00  -1.1725515068157264e-04 5.5803600232254376e-05 0.0000000000000000e+00  -1.2858897947122866e-04 5.7225720389446421e-05 0.0000000000000000e+00  -1.4019548902903945e-04 5.8299264157829500e-05 0.0000000000000000e+00  -1.5197377559955926e-04 5.8988273572702149e-05 0.0000000000000000e+00  -1.6376324406295654e-04 5.9258105202369176e-05 0.0000000000000000e+00  -1.7524805650995760e-04 5.9076490800116763e-05 0.0000000000000000e+00  -1.8569241245236252e-04 5.8415439875956591e-05 0.0000000000000000e+00  -1.9321910314262447e-04 5.7254096167245111e-05 0.0000000000000000e+00  -1.9288469768041712e-04 5.5581675927871951e-05 0.0000000000000000e+00  -1.7171068668683307e-04 5.3397784826279537e-05 0.0000000000000000e+00  -9.6574535989373992e-05 5.0706417872997752e-05 0.0000000000000000e+00  1.1224618871426008e-04 4.7504225298113314e-05 0.0000000000000000e+00  6.2806130893071539e-04 4.3774475596999701e-05 0.0000000000000000e+00  0.0000000000000000e+00 -1.5823228796030010e-06 0.0000000000000000e+00  7.7967015045983212e-07 -1.4476530341735526e-06 0.0000000000000000e+00  1.5139084546366674e-06 -1.0497487549386098e-06 0.0000000000000000e+00  2.1596653261540749e-06 -3.8953787946094121e-07 0.0000000000000000e+00  2.6738234159312738e-06 5.3066901543813573e-07 0.0000000000000000e+00  3.0133709173982259e-06 1.7073375037844750e-06 0.0000000000000000e+00  3.1357233692258959e-06 3.1357233695162173e-06 0.0000000000000000e+00  2.9989869877085595e-06 4.8098191792181918e-06 0.0000000000000000e+00  2.5621730005102210e-06 6.7222711999865590e-06 0.0000000000000000e+00  1.7854075065595237e-06 8.8642758339439817e-06 0.0000000000000000e+00  6.3015669032072546e-07 1.1225460820989918e-05 0.0000000000000000e+00  -9.4052455008581994e-07 1.3793755302202519e-05 0.0000000000000000e+00  -2.9617166463483965e-06 1.6555252726926023e-05 0.0000000000000000e+00  -5.4663297534216711e-06 1.9494070977537561e-05 0.0000000000000000e+00  -8.4847670434437458e-06 2.2592214671064971e-05 0.0000000000000000e+00  -1.2044556314093709e-05 2.5829445400111815e-05 0.0000000000000000e+00  -1.6169950338182152e-05 2.9183166381697226e-05 0.0000000000000000e+00  -2.0881497584085868e-05 3.2628328787889987e-05 0.0000000000000000e+00  -2.6195586444776464e-05 3.6137367606220661e-05 0.0000000000000000e+00  -3.2123967803979004e-05 3.9680175291134357e-05 0.0000000000000000e+00  -3.8673262755309163e-05 4.3224121552750522e-05 0.0000000000000000e+00  -4.5844464479445733e-05 4.6734127185682420e-05 0.0000000000000000e+00  -5.3632445504133635e-05 5.0172798895878494e-05 0.0000000000000000e+00  -6.2025483543803431e-05 5.3500630283318097e-05 0.0000000000000000e+00  -7.1004819734558268e-05 5.6676271607971612e-05 0.0000000000000000e+00  -8.0544259557726068e-05 5.9656867594025600e-05 0.0000000000000000e+00  -9.0609810894474844e-05 6.2398458771141039e-05 0.0000000000000000e+00  -1.0115930263966810e-04 6.4856438498709799e-05 0.0000000000000000e+00  -1.1214177689258624e-04 6.6986056814487223e-05 0.0000000000000000e+00  -1.2349601907642356e-04 6.8742966766215463e-05 0.0000000000000000e+00  -1.3514638768627891e-04 7.0083823692051306e-05 0.0000000000000000e+00  -1.4699076420265165e-04 7.0966977637577905e-05 0.0000000000000000e+00  -1.5886623529516038e-04 7.1353343019832054e-05 0.0000000000000000e+00  -1.7045296539995388e-04 7.1207569805416160e-05 0.0000000000000000e+00  -1.8100885148064616e-04 7.049962715862949