<?xml version="1.0"?>
<VTKFile type="UnstructuredGrid"  version="0.1"  >
<UnstructuredGrid>
<Piece  NumberOfPoints="1681" NumberOfCells="3200">
<Points>
<DataArray  type="Float64"  NumberOfComponents="3"  format="ascii">0 0 0  0.5 0 0  1 0 0  1.5 0 0  2 0 0  2.5 0 0  3 0 0  3.5 0 0  4 0 0  4.5 0 0  5 0 0  5.5 0 0  6 0 0  6.5 0 0  7 0 0  7.5 0 0  8 0 0  8.5 0 0  9 0 0  9.5 0 0  10 0 0  10.5 0 0  11 0 0  11.5 0 0  12 0 0  12.5 0 0  13 0 0  13.5 0 0  14 0 0  14.5 0 0  15 0 0  15.5 0 0  16 0 0  16.5 0 0  17 0 0  17.5 0 0  18 0 0  18.5 0 0  19 0 0  19.5 0 0  20 0 0  0 0.5 0  0.5 0.5 0  1 0.5 0  1.5 0.5 0  2 0.5 0  2.5 0.5 0  3 0.5 0  3.5 0.5 0  4 0.5 0  4.5 0.5 0  5 0.5 0  5.5 0.5 0  6 0.5 0  6.5 0.5 0  7 0.5 0  7.5 0.5 0  8 0.5 0  8.5 0.5 0  9 0.5 0  9.5 0.5 0  10 0.5 0  10.5 0.5 0  11 0.5 0  11.5 0.5 0  12 0.5 0  12.5 0.5 0  13 0.5 0  13.5 0.5 0  14 0.5 0  14.5 0.5 0  15 0.5 0  15.5 0.5 0  16 0.5 0  16.5 0.5 0  17 0.5 0  17.5 0.5 0  18 0.5 0  18.5 0.5 0  19 0.5 0  19.5 0.5 0  20 0.5 0  0 1 0  0.5 1 0  1 1 0  1.5 1 0  2 1 0  2.5 1 0  3 1 0  3.5 1 0  4 1 0  4.5 1 0  5 1 0  5.5 1 0  6 1 0  6.5 1 0  7 1 0  7.5 1 0  8 1 0  8.5 1 0  9 1 0  9.5 1 0  10 1 0  10.5 1 0  11 1 0  11.5 1 0  12 1 0  12.5 1 0  13 1 0  13.5 1 0  14 1 0  14.5 1 0  15 1 0  15.5 1 0  16 1 0  16.5 1 0  17 1 0  17.5 1 0  18 1 0  18.5 1 0  19 1 0  19.5 1 0  20 1 0  0 1.5 0  0.5 1.5 0  1 1.5 0  1.5 1.5 0  2 1.5 0  2.5 1.5 0  3 1.5 0  3.5 1.5 0  4 1.5 0  4.5 1.5 0  5 1.5 0  5.5 1.5 0  6 1.5 0  6.5 1.5 0  7 1.5 0  7.5 1.5 0  8 1.5 0  8.5 1.5 0  9 1.5 0  9.5 1.5 0  10 1.5 0  10.5 1.5 0  11 1.5 0  11.5 1.5 0  12 1.5 0  12.5 1.5 0  13 1.5 0  13.5 1.5 0  14 1.5 0  14.5 1.5 0  15 1.5 0  15.5 1.5 0  16 1.5 0  16.5 1.5 0  17 1.5 0  17.5 1.5 0  18 1.5 0  18.5 1.5 0  19 1.5 0  19.5 1.5 0  20 1.5 0  0 2 0  0.5 2 0  1 2 0  1.5 2 0  2 2 0  2.5 2 0  3 2 0  3.5 2 0  4 2 0  4.5 2 0  5 2 0  5.5 2 0  6 2 0  6.5 2 0  7 2 0  7.5 2 0  8 2 0  8.5 2 0  9 2 0  9.5 2 0  10 2 0  10.5 2 0  11 2 0  11.5 2 0  12 2 0  12.5 2 0  13 2 0  13.5 2 0  14 2 0  14.5 2 0  15 2 0  15.5 2 0  16 2 0  16.5 2 0  17 2 0  17.5 2 0  18 2 0  18.5 2 0  19 2 0  19.5 2 0  20 2 0  0 2.5 0  0.5 2.5 0  1 2.5 0  1.5 2.5 0  2 2.5 0  2.5 2.5 0  3 2.5 0  3.5 2.5 0  4 2.5 0  4.5 2.5 0  5 2.5 0  5.5 2.5 0  6 2.5 0  6.5 2.5 0  7 2.5 0  7.5 2.5 0  8 2.5 0  8.5 2.5 0  9 2.5 0  9.5 2.5 0  10 2.5 0  10.5 2.5 0  11 2.5 0  11.5 2.5 0  12 2.5 0  12.5 2.5 0  13 2.5 0  13.5 2.5 0  14 2.5 0  14.5 2.5 0  15 2.5 0  15.5 2.5 0  16 2.5 0  16.5 2.5 0  17 2.5 0  17.5 2.5 0  18 2.5 0  18.5 2.5 0  19 2.5 0  19.5 2.5 0  20 2.5 0  0 3 0  0.5 3 0  1 3 0  1.5 3 0  2 3 0  2.5 3 0  3 3 0  3.5 3 0  4 3 0  4.5 3 0  5 3 0  5.5 3 0  6 3 0  6.5 3 0  7 3 0  7.5 3 0  8 3 0  8.5 3 0  9 3 0  9.5 3 0  10 3 0  10.5 3 0  11 3 0  11.5 3 0  12 3 0  12.5 3 0  13 3 0  13.5 3 0  14 3 0  14.5 3 0  15 3 0  15.5 3 0  16 3 0  16.5 3 0  17 3 0  17.5 3 0  18 3 0  18.5 3 0  19 3 0  19.5 3 0  20 3 0  0 3.5 0  0.5 3.5 0  1 3.5 0  1.5 3.5 0  2 3.5 0  2.5 3.5 0  3 3.5 0  3.5 3.5 0  4 3.5 0  4.5 3.5 0  5 3.5 0  5.5 3.5 0  6 3.5 0  6.5 3.5 0  7 3.5 0  7.5 3.5 0  8 3.5 0  8.5 3.5 0  9 3.5 0  9.5 3.5 0  10 3.5 0  10.5 3.5 0  11 3.5 0  11.5 3.5 0  12 3.5 0  12.5 3.5 0  13 3.5 0  13.5 3.5 0  14 3.5 0  14.5 3.5 0  15 3.5 0  15.5 3.5 0  16 3.5 0  16.5 3.5 0  17 3.5 0  17.5 3.5 0  18 3.5 0  18.5 3.5 0  19 3.5 0  19.5 3.5 0  20 3.5 0  0 4 0  0.5 4 0  1 4 0  1.5 4 0  2 4 0  2.5 4 0  3 4 0  3.5 4 0  4 4 0  4.5 4 0  5 4 0  5.5 4 0  6 4 0  6.5 4 0  7 4 0  7.5 4 0  8 4 0  8.5 4 0  9 4 0  9.5 4 0  10 4 0  10.5 4 0  11 4 0  11.5 4 0  12 4 0  12.5 4 0  13 4 0  13.5 4 0  14 4 0  14.5 4 0  15 4 0  15.5 4 0  16 4 0  16.5 4 0  17 4 0  17.5 4 0  18 4 0  18.5 4 0  19 4 0  19.5 4 0  20 4 0  0 4.5 0  0.5 4.5 0  1 4.5 0  1.5 4.5 0  2 4.5 0  2.5 4.5 0  3 4.5 0  3.5 4.5 0  4 4.5 0  4.5 4.5 0  5 4.5 0  5.5 4.5 0  6 4.5 0  6.5 4.5 0  7 4.5 0  7.5 4.5 0  8 4.5 0  8.5 4.5 0  9 4.5 0  9.5 4.5 0  10 4.5 0  10.5 4.5 0  11 4.5 0  11.5 4.5 0  12 4.5 0  12.5 4.5 0  13 4.5 0  13.5 4.5 0  14 4.5 0  14.5 4.5 0  15 4.5 0  15.5 4.5 0  16 4.5 0  16.5 4.5 0  17 4.5 0  17.5 4.5 0  18 4.5 0  18.5 4.5 0  19 4.5 0  19.5 4.5 0  20 4.5 0  0 5 0  0.5 5 0  1 5 0  1.5 5 0  2 5 0  2.5 5 0  3 5 0  3.5 5 0  4 5 0  4.5 5 0  5 5 0  5.5 5 0  6 5 0  6.5 5 0  7 5 0  7.5 5 0  8 5 0  8.5 5 0  9 5 0  9.5 5 0  10 5 0  10.5 5 0  11 5 0  11.5 5 0  12 5 0  12.5 5 0  13 5 0  13.5 5 0  14 5 0  14.5 5 0  15 5 0  15.5 5 0  16 5 0  16.5 5 0  17 5 0  17.5 5 0  18 5 0  18.5 5 0  19 5 0  19.5 5 0  20 5 0  0 5.5 0  0.5 5.5 0  1 5.5 0  1.5 5.5 0  2 5.5 0  2.5 5.5 0  3 5.5 0  3.5 5.5 0  4 5.5 0  4.5 5.5 0  5 5.5 0  5.5 5.5 0  6 5.5 0  6.5 5.5 0  7 5.5 0  7.5 5.5 0  8 5.5 0  8.5 5.5 0  9 5.5 0  9.5 5.5 0  10 5.5 0  10.5 5.5 0  11 5.5 0  11.5 5.5 0  12 5.5 0  12.5 5.5 0  13 5.5 0  13.5 5.5 0  14 5.5 0  14.5 5.5 0  15 5.5 0  15.5 5.5 0  16 5.5 0  16.5 5.5 0  17 5.5 0  17.5 5.5 0  18 5.5 0  18.5 5.5 0  19 5.5 0  19.5 5.5 0  20 5.5 0  0 6 0  0.5 6 0  1 6 0  1.5 6 0  2 6 0  2.5 6 0  3 6 0  3.5 6 0  4 6 0  4.5 6 0  5 6 0  5.5 6 0  6 6 0  6.5 6 0  7 6 0  7.5 6 0  8 6 0  8.5 6 0  9 6 0  9.5 6 0  10 6 0  10.5 6 0  11 6 0  11.5 6 0  12 6 0  12.5 6 0  13 6 0  13.5 6 0  14 6 0  14.5 6 0  15 6 0  15.5 6 0  16 6 0  16.5 6 0  17 6 0  17.5 6 0  18 6 0  18.5 6 0  19 6 0  19.5 6 0  20 6 0  0 6.5 0  0.5 6.5 0  1 6.5 0  1.5 6.5 0  2 6.5 0  2.5 6.5 0  3 6.5 0  3.5 6.5 0  4 6.5 0  4.5 6.5 0  5 6.5 0  5.5 6.5 0  6 6.5 0  6.5 6.5 0  7 6.5 0  7.5 6.5 0  8 6.5 0  8.5 6.5 0  9 6.5 0  9.5 6.5 0  10 6.5 0  10.5 6.5 0  11 6.5 0  11.5 6.5 0  12 6.5 0  12.5 6.5 0  13 6.5 0  13.5 6.5 0  14 6.5 0  14.5 6.5 0  15 6.5 0  15.5 6.5 0  16 6.5 0  16.5 6.5 0  17 6.5 0  17.5 6.5 0  18 6.5 0  18.5 6.5 0  19 6.5 0  19.5 6.5 0  20 6.5 0  0 7 0  0.5 7 0  1 7 0  1.5 7 0  2 7 0  2.5 7 0  3 7 0  3.5 7 0  4 7 0  4.5 7 0  5 7 0  5.5 7 0  6 7 0  6.5 7 0  7 7 0  7.5 7 0  8 7 0  8.5 7 0  9 7 0  9.5 7 0  10 7 0  10.5 7 0  11 7 0  11.5 7 0  12 7 0  12.5 7 0  13 7 0  13.5 7 0  14 7 0  14.5 7 0  15 7 0  15.5 7 0  16 7 0  16.5 7 0  17 7 0  17.5 7 0  18 7 0  18.5 7 0  19 7 0  19.5 7 0  20 7 0  0 7.5 0  0.5 7.5 0  1 7.5 0  1.5 7.5 0  2 7.5 0  2.5 7.5 0  3 7.5 0  3.5 7.5 0  4 7.5 0  4.5 7.5 0  5 7.5 0  5.5 7.5 0  6 7.5 0  6.5 7.5 0  7 7.5 0  7.5 7.5 0  8 7.5 0  8.5 7.5 0  9 7.5 0  9.5 7.5 0  10 7.5 0  10.5 7.5 0  11 7.5 0  11.5 7.5 0  12 7.5 0  12.5 7.5 0  13 7.5 0  13.5 7.5 0  14 7.5 0  14.5 7.5 0  15 7.5 0  15.5 7.5 0  16 7.5 0  16.5 7.5 0  17 7.5 0  17.5 7.5 0  18 7.5 0  18.5 7.5 0  19 7.5 0  19.5 7.5 0  20 7.5 0  0 8 0  0.5 8 0  1 8 0  1.5 8 0  2 8 0  2.5 8 0  3 8 0  3.5 8 0  4 8 0  4.5 8 0  5 8 0  5.5 8 0  6 8 0  6.5 8 0  7 8 0  7.5 8 0  8 8 0  8.5 8 0  9 8 0  9.5 8 0  10 8 0  10.5 8 0  11 8 0  11.5 8 0  12 8 0  12.5 8 0  13 8 0  13.5 8 0  14 8 0  14.5 8 0  15 8 0  15.5 8 0  16 8 0  16.5 8 0  17 8 0  17.5 8 0  18 8 0  18.5 8 0  19 8 0  19.5 8 0  20 8 0  0 8.5 0  0.5 8.5 0  1 8.5 0  1.5 8.5 0  2 8.5 0  2.5 8.5 0  3 8.5 0  3.5 8.5 0  4 8.5 0  4.5 8.5 0  5 8.5 0  5.5 8.5 0  6 8.5 0  6.5 8.5 0  7 8.5 0  7.5 8.5 0  8 8.5 0  8.5 8.5 0  9 8.5 0  9.5 8.5 0  10 8.5 0  10.5 8.5 0  11 8.5 0  11.5 8.5 0  12 8.5 0  12.5 8.5 0  13 8.5 0  13.5 8.5 0  14 8.5 0  14.5 8.5 0  15 8.5 0  15.5 8.5 0  16 8.5 0  16.5 8.5 0  17 8.5 0  17.5 8.5 0  18 8.5 0  18.5 8.5 0  19 8.5 0  19.5 8.5 0  20 8.5 0  0 9 0  0.5 9 0  1 9 0  1.5 9 0  2 9 0  2.5 9 0  3 9 0  3.5 9 0  4 9 0  4.5 9 0  5 9 0  5.5 9 0  6 9 0  6.5 9 0  7 9 0  7.5 9 0  8 9 0  8.5 9 0  9 9 0  9.5 9 0  10 9 0  10.5 9 0  11 9 0  11.5 9 0  12 9 0  12.5 9 0  13 9 0  13.5 9 0  14 9 0  14.5 9 0  15 9 0  15.5 9 0  16 9 0  16.5 9 0  17 9 0  17.5 9 0  18 9 0  18.5 9 0  19 9 0  19.5 9 0  20 9 0  0 9.5 0  0.5 9.5 0  1 9.5 0  1.5 9.5 0  2 9.5 0  2.5 9.5 0  3 9.5 0  3.5 9.5 0  4 9.5 0  4.5 9.5 0  5 9.5 0  5.5 9.5 0  6 9.5 0  6.5 9.5 0  7 9.5 0  7.5 9.5 0  8 9.5 0  8.5 9.5 0  9 9.5 0  9.5 9.5 0  10 9.5 0  10.5 9.5 0  11 9.5 0  11.5 9.5 0  12 9.5 0  12.5 9.5 0  13 9.5 0  13.5 9.5 0  14 9.5 0  14.5 9.5 0  15 9.5 0  15.5 9.5 0  16 9.5 0  16.5 9.5 0  17 9.5 0  17.5 9.5 0  18 9.5 0  18.5 9.5 0  19 9.5 0  19.5 9.5 0  20 9.5 0  0 10 0  0.5 10 0  1 10 0  1.5 10 0  2 10 0  2.5 10 0  3 10 0  3.5 10 0  4 10 0  4.5 10 0  5 10 0  5.5 10 0  6 10 0  6.5 10 0  7 10 0  7.5 10 0  8 10 0  8.5 10 0  9 10 0  9.5 10 0  10 10 0  10.5 10 0  11 10 0  11.5 10 0  12 10 0  12.5 10 0  13 10 0  13.5 10 0  14 10 0  14.5 10 0  15 10 0  15.5 10 0  16 10 0  16.5 10 0  17 10 0  17.5 10 0  18 10 0  18.5 10 0  19 10 0  19.5 10 0  20 10 0  0 10.5 0  0.5 10.5 0  1 10.5 0  1.5 10.5 0  2 10.5 0  2.5 10.5 0  3 10.5 0  3.5 10.5 0  4 10.5 0  4.5 10.5 0  5 10.5 0  5.5 10.5 0  6 10.5 0  6.5 10.5 0  7 10.5 0  7.5 10.5 0  8 10.5 0  8.5 10.5 0  9 10.5 0  9.5 10.5 0  10 10.5 0  10.5 10.5 0  11 10.5 0  11.5 10.5 0  12 10.5 0  12.5 10.5 0  13 10.5 0  13.5 10.5 0  14 10.5 0  14.5 10.5 0  15 10.5 0  15.5 10.5 0  16 10.5 0  16.5 10.5 0  17 10.5 0  17.5 10.5 0  18 10.5 0  18.5 10.5 0  19 10.5 0  19.5 10.5 0  20 10.5 0  0 11 0  0.5 11 0  1 11 0  1.5 11 0  2 11 0  2.5 11 0  3 11 0  3.5 11 0  4 11 0  4.5 11 0  5 11 0  5.5 11 0  6 11 0  6.5 11 0  7 11 0  7.5 11 0  8 11 0  8.5 11 0  9 11 0  9.5 11 0  10 11 0  10.5 11 0  11 11 0  11.5 11 0  12 11 0  12.5 11 0  13 11 0  13.5 11 0  14 11 0  14.5 11 0  15 11 0  15.5 11 0  16 11 0  16.5 11 0  17 11 0  17.5 11 0  18 11 0  18.5 11 0  19 11 0  19.5 11 0  20 11 0  0 11.5 0  0.5 11.5 0  1 11.5 0  1.5 11.5 0  2 11.5 0  2.5 11.5 0  3 11.5 0  3.5 11.5 0  4 11.5 0  4.5 11.5 0  5 11.5 0  5.5 11.5 0  6 11.5 0  6.5 11.5 0  7 11.5 0  7.5 11.5 0  8 11.5 0  8.5 11.5 0  9 11.5 0  9.5 11.5 0  10 11.5 0  10.5 11.5 0  11 11.5 0  11.5 11.5 0  12 11.5 0  12.5 11.5 0  13 11.5 0  13.5 11.5 0  14 11.5 0  14.5 11.5 0  15 11.5 0  15.5 11.5 0  16 11.5 0  16.5 11.5 0  17 11.5 0  17.5 11.5 0  18 11.5 0  18.5 11.5 0  19 11.5 0  19.5 11.5 0  20 11.5 0  0 12 0  0.5 12 0  1 12 0  1.5 12 0  2 12 0  2.5 12 0  3 12 0  3.5 12 0  4 12 0  4.5 12 0  5 12 0  5.5 12 0  6 12 0  6.5 12 0  7 12 0  7.5 12 0  8 12 0  8.5 12 0  9 12 0  9.5 12 0  10 12 0  10.5 12 0  11 12 0  11.5 12 0  12 12 0  12.5 12 0  13 12 0  13.5 12 0  14 12 0  14.5 12 0  
[...]
<PointData  Vectors="f_826-0"> 
<DataArray  type="Float64"  Name="f_826-0"  NumberOfComponents="3" format="ascii">0.0000000000000000e+00 0.0000000000000000e+00 0.0000000000000000e+00  2.3096200739841465e-04 0.0000000000000000e+00 0.0000000000000000e+00  4.5286570321229129e-04 0.0000000000000000e+00 0.0000000000000000e+00  6.4585421522218140e-04 0.0000000000000000e+00 0.0000000000000000e+00  7.9582288358517287e-04 0.0000000000000000e+00 0.0000000000000000e+00  8.9008799918417498e-04 0.0000000000000000e+00 0.0000000000000000e+00  9.1741082970029188e-04 0.0000000000000000e+00 0.0000000000000000e+00  8.6837823979768046e-04 0.0000000000000000e+00 0.0000000000000000e+00  7.3582657868116426e-04 0.0000000000000000e+00 0.0000000000000000e+00  5.1529418273224374e-04 0.0000000000000000e+00 0.0000000000000000e+00  2.0550822897922273e-04 0.0000000000000000e+00 0.0000000000000000e+00  -1.9108807824555872e-04 0.0000000000000000e+00 0.0000000000000000e+00  -6.6776213599683827e-04 0.0000000000000000e+00 0.0000000000000000e+00  -1.2128662067915626e-03 0.0000000000000000e+00 0.0000000000000000e+00  -1.8091525253786597e-03 0.0000000000000000e+00 0.0000000000000000e+00  -2.4330215851265519e-03 0.0000000000000000e+00 0.0000000000000000e+00  -3.0536947530440152e-03 0.0000000000000000e+00 0.0000000000000000e+00  -3.6323007586170830e-03 0.0000000000000000e+00 0.0000000000000000e+00  -4.1208634509291688e-03 0.0000000000000000e+00 0.0000000000000000e+00  -4.4611753512004016e-03 0.0000000000000000e+00 0.0000000000000000e+00  -4.5835377192265693e-03 0.0000000000000000e+00 0.0000000000000000e+00  -4.4053428011191029e-03 0.0000000000000000e+00 0.0000000000000000e+00  -3.8294672228371515e-03 0.0000000000000000e+00 0.0000000000000000e+00  -2.7424365746056747e-03 0.0000000000000000e+00 0.0000000000000000e+00  -1.0123093014603726e-03 0.0000000000000000e+00 0.0000000000000000e+00  1.5137880530524291e-03 0.0000000000000000e+00 0.0000000000000000e+00  5.0125640454924021e-03 0.0000000000000000e+00 0.0000000000000000e+00  9.6880237885931843e-03 0.0000000000000000e+00 0.0000000000000000e+00  1.5775650280241311e-02 0.0000000000000000e+00 0.0000000000000000e+00  2.3547526299781046e-02 0.0000000000000000e+00 0.0000000000000000e+00  3.3318702509055942e-02 0.0000000000000000e+00 0.0000000000000000e+00  4.5455241934595235e-02 0.0000000000000000e+00 0.0000000000000000e+00  6.0384557742267794e-02 0.0000000000000000e+00 0.0000000000000000e+00  7.8608948578699184e-02 0.0000000000000000e+00 0.0000000000000000e+00  1.0072369175740642e-01 0.0000000000000000e+00 0.0000000000000000e+00  1.2744180609259417e-01 0.0000000000000000e+00 0.0000000000000000e+00  1.5962889963533700e-01 0.0000000000000000e+00 0.0000000000000000e+00  1.9835396804227828e-01 0.0000000000000000e+00 0.0000000000000000e+00  2.4496738189132422e-01 0.0000000000000000e+00 0.0000000000000000e+00  3.0123313846211713e-01 0.0000000000000000e+00 0.0000000000000000e+00  3.6960193122487178e-01 0.0000000000000000e+00 0.0000000000000000e+00  0.0000000000000000e+00 2.3096200739343773e-04 0.0000000000000000e+00  2.4739770366142969e-04 2.4739770366265208e-04 0.0000000000000000e+00  4.7954788218604289e-04 2.8556198959100868e-04 0.0000000000000000e+00  6.8357244931796513e-04 3.4559697163485324e-04 0.0000000000000000e+00  8.4506958860732385e-04 4.2833609768404144e-04 0.0000000000000000e+00  9.5104791180363824e-04 5.3391288712175420e-04 0.0000000000000000e+00  9.9014184004502545e-04 6.6206595071931153e-04 0.0000000000000000e+00  9.5288299885680819e-04 8.1232367368264840e-04 0.0000000000000000e+00  8.3207643864360924e-04 9.8406917158258230e-04 0.0000000000000000e+00  6.2323600866184240e-04 1.1765576923391473e-03 0.0000000000000000e+00  3.2506472665835460e-04 1.3889174292663938e-03 0.0000000000000000e+00  -6.0020810435268284e-05 1.6201444249655166e-03 0.0000000000000000e+00  -5.2531841489456552e-04 1.8690951402476222e-03 0.0000000000000000e+00  -1.0592153096602485e-03 2.1344779795681645e-03 0.0000000000000000e+00  -1.6445036476335211e-03 2.4148443399525355e-03 0.0000000000000000e+00  -2.2576290040400787e-03 2.7085795182757492e-03 0.0000000000000000e+00  -2.8678630369867665e-03 3.0138937401224903e-03 0.0000000000000000e+00  -3.4363898744424141e-03 3.3288135581216361e-03 0.0000000000000000e+00  -3.9152936186135851e-03 3.6511738725958118e-03 0.0000000000000000e+00  -4.2464314814543583e-03 3.9786108397687836e-03 0.0000000000000000e+00  -4.3601732493447369e-03 4.3085559461268977e-03 0.0000000000000000e+00  -4.1739827176346380e-03 4.6382315384538514e-03 0.0000000000000000e+00  -3.5908100260609787e-03 4.9646481054991115e-03 0.0000000000000000e+00  -2.4972548976924728e-03 5.2846036048265722e-03 0.0000000000000000e+00  -7.6144884156525777e-04 5.5946851148169583e-03 0.0000000000000000e+00  1.7694117082354473e-03 5.8912730599783043e-03 0.0000000000000000e+00  5.2719712172976845e-03 6.1705482005066856e-03 0.0000000000000000e+00  9.9501798099142693e-03 6.4285014815287670e-03 0.0000000000000000e+00  1.6039478817280253e-02 6.6609466858312790e-03 0.0000000000000000e+00  2.3811928188422288e-02 6.8635356009318351e-03 0.0000000000000000e+00  3.3582582004339862e-02 7.0317750570607568e-03 0.0000000000000000e+00  4.5717543204885788e-02 7.1610446550729690e-03 0.0000000000000000e+00  6.0644315763365722e-02 7.2466131599931254e-03 0.0000000000000000e+00  7.8865360003362042e-02 7.2836501377830827e-03 0.0000000000000000e+00  1.0097621094178477e-01 7.2672270079197718e-03 0.0000000000000000e+00  1.2769026044914356e-01 7.1922981227642907e-03 0.0000000000000000e+00  1.5987355712091603e-01 7.0536523973113987e-03 0.0000000000000000e+00  1.9859518284782390e-01 6.8458619652123735e-03 0.0000000000000000e+00  2.4520277190249251e-01 6.5634737196744860e-03 0.0000000000000000e+00  3.0143954280651319e-01 6.2025536410053421e-03 0.0000000000000000e+00  3.6962107469255079e-01 5.7663014976331263e-03 0.0000000000000000e+00  0.0000000000000000e+00 4.5286570321157084e-04 0.0000000000000000e+00  2.8556198958932621e-04 4.7954788219155010e-04 0.0000000000000000e+00  5.5355613021075350e-04 5.5355613021519374e-04 0.0000000000000000e+00  7.9276878668215844e-04 6.7372452428627802e-04 0.0000000000000000e+00  9.8944812297301001e-04 8.3985203532260409e-04 0.0000000000000000e+00  1.1307143123225184e-03 1.0515924805032982e-03 0.0000000000000000e+00  1.2051613727068582e-03 1.3083283066193288e-03 0.0000000000000000e+00  1.2032581052536196e-03 1.6091519923630494e-03 0.0000000000000000e+00  1.1177475335832823e-03 1.9528792138858273e-03 0.0000000000000000e+00  9.4408122465623257e-04 2.3380596802243347e-03 0.0000000000000000e+00  6.8089522676874315e-04 2.7629783162763577e-03 0.0000000000000000e+00  3.3053074121098793e-04 3.2256484423812560e-03 0.0000000000000000e+00  -1.0039651091626820e-04 3.7237997538369524e-03 0.0000000000000000e+00  -6.0037307191487441e-04 4.2548632135577255e-03 0.0000000000000000e+00  -1.1523044185633208e-03 4.8159542489544576e-03 0.0000000000000000e+00  -1.7327641197397983e-03 5.4038551969301509e-03 0.0000000000000000e+00  -2.3111667463115940e-03 6.0149977106833908e-03 0.0000000000000000e+00  -2.8488541154381253e-03 6.6454457410291658e-03 0.0000000000000000e+00  -3.2980822561569593e-03 7.2908796712174741e-03 0.0000000000000000e+00  -3.6008935889900533e-03 7.9465821848428309e-03 0.0000000000000000e+00  -3.6878549864735404e-03 8.6074264602994336e-03 0.0000000000000000e+00  -3.4766373175260561e-03 9.2678673028151991e-03 0.0000000000000000e+00  -2.8704053648070486e-03 9.9219358377296424e-03 0.0000000000000000e+00  -1.7559780723780875e-03 1.0563238389915677e-02 0.0000000000000000e+00  -1.7071364958218351e-06 1.1184960157914679e-02 0.0000000000000000e+00  2.5449941380605986e-03 1.1779874248040211e-02 0.0000000000000000e+00  6.0605616688349569e-03 1.2340356553182816e-02 0.0000000000000000e+00  1.0748751140180536e-02 1.2858406827061925e-02 0.0000000000000000e+00  1.6844830172070221e-02 1.3325676096655706e-02 0.0000000000000000e+00  2.4620713230731499e-02 1.3733500243937061e-02 0.0000000000000000e+00  3.4391345504918541e-02 1.4072939131854964e-02 0.0000000000000000e+00  4.6522766629984044e-02 1.4334819992372166e-02 0.0000000000000000e+00  6.1442471623619675e-02 1.4509782865794706e-02 0.0000000000000000e+00  7.9652972036147365e-02 1.4588324658577656e-02 0.0000000000000000e+00  1.0174990964381238e-01 1.4560837194243403e-02 0.0000000000000000e+00  1.2844680356426599e-01 1.4417635087242303e-02 0.0000000000000000e+00  1.6060973510201740e-01 1.4148975606638201e-02 0.0000000000000000e+00  1.9930741352007614e-01 1.3745084004271130e-02 0.0000000000000000e+00  2.4588595743742825e-01 1.3196127506609423e-02 0.0000000000000000e+00  3.0208492153367966e-01 1.2491312618006734e-02 0.0000000000000000e+00  3.7022471712033533e-01 1.1611703947100434e-02 0.0000000000000000e+00  0.0000000000000000e+00 6.4585421522363499e-04 0.0000000000000000e+00  3.4559697163133766e-04 6.8357244932681189e-04 0.0000000000000000e+00  6.7372452428428721e-04 7.9276878668523834e-04 0.0000000000000000e+00  9.7227733102292523e-04 9.7227733102066977e-04 0.0000000000000000e+00  1.2280396699293323e-03 1.2213422947561471e-03 0.0000000000000000e+00  1.4283058425931801e-03 1.5391321546810691e-03 0.0000000000000000e+00  1.5617111546839563e-03 1.9245330412693362e-03 0.0000000000000000e+00  1.6187028163393413e-03 2.3761004513124053e-03 0.0000000000000000e+00  1.5919680349369637e-03 2.8920381091663391e-03 0.0000000000000000e+00  1.4768796673799217e-03 3.4701816219509718e-03 0.0000000000000000e+00  1.2719753539817999e-03 4.1079820180114843e-03 0.0000000000000000e+00  9.7947803579827362e-04 4.8024871229450450e-03 0.0000000000000000e+00  6.0586402979272255e-04 5.5503202101935527e-03 0.0000000000000000e+00  1.6248477871519631e-04 6.3476562327287244e-03 0.0000000000000000e+00  -3.3375105389016118e-04 7.1901963296352386e-03 0.0000000000000000e+00  -8.5962756680546656e-04 8.0731414271572113e-03 0.0000000000000000e+00  -1.3847948627132005e-03 8.9911657788428988e-03 0.0000000000000000e+00  -1.8708550748551603e-03 9.9383912932326287e-03 0.0000000000000000e+00  -2.2703485161507720e-03 1.0908363508532604e-02 0.0000000000000000e+00  -2.5256243924312079e-03 1.1894030095909136e-02 0.0000000000000000e+00  -2.5675766923032774e-03 1.2887722802375665e-02 0.0000000000000000e+00  -2.3142208000218353e-03 1.3881143773526148e-02 0.0000000000000000e+00  -1.6690796635797040e-03 1.4865357218735111e-02 0.0000000000000000e+00  -5.1933942042538175e-04 1.5830787388199669e-02 0.0000000000000000e+00  1.2662775562652638e-03 1.6767223814020068e-02 0.0000000000000000e+00  3.8399903094575067e-03 1.7663834714759082e-02 0.0000000000000000e+00  7.3778776283151271e-03 1.8509189359851727e-02 0.0000000000000000e+00  1.2083357088350941e-02 1.9291290016480275e-02 0.0000000000000000e+00  1.8191386682515284e-02 1.9997613828455024e-02 0.0000000000000000e+00  2.5973610069054270e-02 2.0615164563753594e-02 0.0000000000000000e+00  3.5744751449526900e-02 2.1130533556871202e-02 0.0000000000000000e+00  4.7870690508050324e-02 2.1529968280383945e-02 0.0000000000000000e+00  6.2778833833260328e-02 2.1799445683934882e-02 0.0000000000000000e+00  8.0971683939377329e-02 2.1924745530002183e-02 0.0000000000000000e+00  1.0304495473108674e-01 2.1891515896430829e-02 0.0000000000000000e+00  1.2971230860993671e-01 2.1685316623295633e-02 0.0000000000000000e+00  1.6184001106142207e-01 2.1291606873918879e-02 0.0000000000000000e+00  2.0049692786818610e-01 2.0695569868650242e-02 0.0000000000000000e+00  2.4702912731741897e-01 1.9881406878387079e-02 0.0000000000000000e+00  3.0317540230822215e-01 1.8829967440017595e-02 0.0000000000000000e+00  3.7125358850354617e-01 1.7512100426809125e-02 0.0000000000000000e+00  0.0000000000000000e+00 7.9582288359284425e-04 0.0000000000000000e+00  4.2833609768298889e-04 8.4506958861174273e-04 0.0000000000000000e+00  8.3985203532575164e-04 9.8944812297085179e-04 0.0000000000000000e+00  1.2213422947586474e-03 1.2280396699256783e-03 0.0000000000000000e+00  1.5597721753386302e-03 1.5597721753371346e-03 0.0000000000000000e+00  1.8425697218560286e-03 1.9834128553745502e-03 0.0000000000000000e+00  2.0584079340128575e-03 2.4973906378382930e-03 0.0000000000000000e+00  2.1977142044810405e-03 3.0997309452129667e-03 0.0000000000000000e+00  2.2531163207669129e-03 3.7880207178630750e-03 0.0000000000000000e+00  2.2198944411965637e-03 4.5593797857600123e-03 0.0000000000000000e+00  2.0964621629133958e-03 5.4104320145867534e-03 0.0000000000000000e+00  1.8848870214711634e-03 6.3372746665837972e-03 0.0000000000000000e+00  1.5914576488279888e-03 7.3354457372239506e-03 0.0000000000000000e+00  1.2273043056271569e-03 8.3998894787594581e-03 0.0000000000000000e+00  8.0907983922189118e-04 9.5249205903807227e-03 0.0000000000000000e+00  3.5970889811532449e-04 1.0704187756882682e-02 0.0000000000000000e+00  -9.0785599904464570e-05 1.1930637371106960e-02 0.0000000000000000e+00  -5.0436813891185288e-04 1.3196478392639450e-02 0.0000000000000000e+00  -8.3397564345673953e-04 1.4493149388772907e-02 0.0000000000000000e+00  -1.0223862292913501e-03 1.5811288883400196e-02 0.0000000000000000e+00  -1.0009521886576247e-03 1.7140710207918006e-02 0.0000000000000000e+00  -6.8817267117422538e-04 1.8470382104962928e-02 0.0000000000000000e+00  1.1925187594995858e-05 1.9788416376457590e-02 0.0000000000000000e+00  1.2116368599738271e-03 2.1082063884765887e-02 0.0000000000000000e+00  3.0417148403510150e-03 2.2337720199100575e-02 0.0000000000000000e+00  5.6538550416695811e-03 2.3540942115570937e-02 0.0000000000000000e+00  9.2236251720439009e-03 2.4676476147816821e-02 0.0000000000000000e+00  1.3953955103497501e-02 2.5728299859176965e-02 0.0000000000000000e+00  2.0079351040113411e-02 2.6679676544969100e-02 0.0000000000000000e+00  2.7871054358475214e-02 2.7513223214715152e-02 0.0000000000000000e+00  3.7643450862307422e-02 2.8210990972457346e-02 0.0000000000000000e+00  4.9762160427454009e-02 2.8754555587469251e-02 0.0000000000000000e+00  6.4654422713182377e-02 2.9125113978020221e-02 0.0000000000000000e+00  8.2822678829835170e-02 2.9303578800022493e-02 0.0000000000000000e+00  1.0486269562820223e-01 2.9270656535091727e-02 0.0000000000000000e+00  1.3148830289852487e-01 2.9006879447074738e-02 0.0000000000000000e+00  1.6356602428603845e-01 2.8492525381027482e-02 0.0000000000000000e+00  2.0216497592142141e-01 2.7707271887145671e-02 0.0000000000000000e+00  2.4863114752391000e-01 2.6629249884727178e-02 0.0000000000000000e+00  3.0470214326372203e-01 2.5232930537646431e-02 0.0000000000000000e+00  3.7269252001531372e-01 2.3485557290621347e-02 0.0000000000000000e+00  0.0000000000000000e+00 8.9008799919184831e-04 0.0000000000000000e+00  5.3391288712387132e-04 9.5104791180497951e-04 0.0000000000000000e+00  1.0515924805056464e-03 1.1307143123228493e-03 0.0000000000000000e+00  1.5391321546832694e-03 1.4283058425892010e-03 0.0000000000000000e+00  1.9834128553765369e-03 1.8425697218474178e-03 0.0000000000000000e+00  2.3719346126110327e-03 2.3719346126046263e-03 0.0000000000000000e+00  2.6933928278889169e-03 3.0144122419712592e-03 0.0000000000000000e+00  2.9381861826574276e-03 3.7675285910973152e-03 0.0000000000000000e+00  3.0988709068959738e-03 4.6282794840726378e-03 0.0000000000000000e+00  3.1706161760542357e-03 5.5930924617385736e-03 0.0000000000000000e+00  3.1516853140753556e-03 6.6577883035280564e-03 0.0000000000000000e+00  3.0439549931505308e-03 7.8175403114654277e-03 0.0000000000000000e+00  2.8534806213025140e-03 9.0668311158412056e-03 0.0000000000000000e+00  2.5911151072666476e-03 1.0399407371024476e-02 0.0000000000000000e+00  2.2731883294184007e-03 1.1808232985245260e-02 0.0000000000000000e+00  1.9222553374335309e-03 1.3285441704763964e-02 0.0000000000000000e+00  1.5679224486925586e-03 1.4822290021905452e-02 0.0000000000000000e+00  1.2477619932624432e-03 1.6409111514373756e-02 0.0000000000000000e+00  1.0083286155331279e-03 1.8035273851609728e-02 0.0000000000000000e+00  9.0629291575001602e-04 1.9689139821698776e-02 0.0000000000000000e+00  1.0097120307698301e-03 2.1358033836375846e-02 0.0000000000000000e+00  1.3994618077248851e-03 2.3028215458209440e-02 0.0000000000000000e+00  2.1708619250654670e-03 2.4684861557867741e-02 0.0000000000000000e+00  3.4355342250941331e-03 2.6312058740776918e-02 0.0000000000000000e+00  5.3235464326826529e-03 2.7892807670115559e-02 0.0000000000000000e+00  7.9859094730367168e-03 2.9409040839496112e-02 0.0000000000000000e+00  1.1597518399670192e-02 3.0841655188081320e-02 0.0000000000000000e+00  1.6360656904962901e-02 3.2170560668294108e-02 0.0000000000000000e+00  2.2509227105734872e-02 3.3374745414625782e-02 0.0000000000000000e+00  3.0313925255890040e-02 3.4432357437044682e-02 0.0000000000000000e+00  4.0088668755538709e-02 3.5320801631502002e-02 0.0000000000000000e+00  5.2198703828150832e-02 3.6016849114545370e-02 0.0000000000000000e+00  6.7071008532525456e-02 3.6496752972571558e-02 0.0000000000000000e+00  8.5207889143433926e-02 3.6736359478738788e-02 0.0000000000000000e+00  1.0720511262895180e-01 3.6711194553431546e-02 0.0000000000000000e+00  1.3377663610759222e-01 3.6396487344704236e-02 0.0000000000000000e+00  1.6578919109403917e-01 3.5767058523513008e-02 0.0000000000000000e+00  2.0431204688981652e-01 3.4796941851114684e-02 0.0000000000000000e+00  2.5069100189640942e-01 3.3458535024310725e-02 0.0000000000000000e+00  3.0666278276130854e-01 3.1721082847371615e-02 0.0000000000000000e+00  3.7454099650727452e-01 2.9548632552404926e-02 0.0000000000000000e+00  0.0000000000000000e+00 9.1741082969781481e-04 0.0000000000000000e+00  6.6206595072365127e-04 9.9014184004481230e-04 0.0000000000000000e+00  1.3083283066207209e-03 1.2051613727117293e-03 0.0000000000000000e+00  1.9245330412686733e-03 1.5617111546787129e-03 0.0000000000000000e+00  2.4973906378336751e-03 2.0584079340070596e-03 0.0000000000000000e+00  3.0144122419609167e-03 2.6933928278868066e-03 0.0000000000000000e+00  3.4642974999656208e-03 3.4642974999753648e-03 0.0000000000000000e+00  3.8374070837781053e-03 4.3681825530597664e-03 0.0000000000000000e+00  4.1262142185519522e-03 5.4014869585900490e-03 0.0000000000000000e+00  4.3257598097032803e-03 6.5599814712355492e-03 0.0000000000000000e+00  4.4341320962549358e-03 7.8387210340072552e-03 0.0000000000000000e+00  4.4529834197105933e-03 9.2319943588547570e-03 0.0000000000000000e+00  4.3880929155799787e-03 1.0733270418055111e-02 0.0000000000000000e+00  4.2499827399842269e-03 1.2335142267699523e-02 0.0000000000000000e+00  4.0545954359457771e-03 1.4029268967198881e-02 0.0000000000000000e+00  3.8240406704577274e-03 1.5806316573144453e-02 0.0000000000000000e+00  3.5874206735333563e-03 1.7655899356638236e-02 0.0000000000000000e+00  3.3817452891488592e-03 1.9566522548278301e-02 0.0000000000000000e+00  3.2529496975811519e-03 2.1525528063249671e-02 0.0000000000000000e+00  3.2570307414938001e-03 2.3519044800462192e-02 0.0000000000000000e+00  3.4613216012495235e-03 2.5531945239502394e-02 0.0000000000000000e+00  3.9459296142333533e-03 2.7547810170965942e-02 0.0000000000000000e+00  4.8053687246192266e-03 2.9548903481954932e-02 0.0000000000000000e+00  6.1504269452886690e-03 3.1516158966374067e-02 0.0000000000000000e+00  8.1103211018477492e-03 3.3429181125399922e-02 0.0000000000000000e+00  1.0835207133290732e-02 3.5266261844657504e-02 0.0000000000000000e+00  1.4499135973203873e-02 3.7004414651552152e-02 0.0000000000000000e+00  1.9303574925395216e-02 3.8619427923319675e-02 0.0000000000000000e+00  2.5481656065956617e-02 4.0085937865253912e-02 0.0000000000000000e+00  3.3303372016610752e-02 4.1377521202039372e-02 0.0000000000000000e+00  4.3082023934814181e-02 4.2466806147110917e-02 0.0000000000000000e+00  5.5182350225221513e-02 4.3325598038286998e-02 0.0000000000000000e+00  7.0030949168954998e-02 4.3925012529907992e-02 0.0000000000000000e+00  8.8129890850352388e-02 4.4235603471874906e-02 0.0000000000000000e+00  1.1007485602232489e-01 4.4227462949159982e-02 0.0000000000000000e+00  1.3657985298952660e-01 4.3870254865302633e-02 0.0000000000000000e+00  1.6851175341026911e-01 4.3133118189493592e-02 0.0000000000000000e+00  2.0693995271039040e