<?xml version="1.0"?>
<VTKFile type="UnstructuredGrid"  version="0.1"  >
<UnstructuredGrid>
<Piece  NumberOfPoints="1681" NumberOfCells="3200">
<Points>
<DataArray  type="Float64"  NumberOfComponents="3"  format="ascii">0 0 0  0.5 0 0  1 0 0  1.5 0 0  2 0 0  2.5 0 0  3 0 0  3.5 0 0  4 0 0  4.5 0 0  5 0 0  5.5 0 0  6 0 0  6.5 0 0  7 0 0  7.5 0 0  8 0 0  8.5 0 0  9 0 0  9.5 0 0  10 0 0  10.5 0 0  11 0 0  11.5 0 0  12 0 0  12.5 0 0  13 0 0  13.5 0 0  14 0 0  14.5 0 0  15 0 0  15.5 0 0  16 0 0  16.5 0 0  17 0 0  17.5 0 0  18 0 0  18.5 0 0  19 0 0  19.5 0 0  20 0 0  0 0.5 0  0.5 0.5 0  1 0.5 0  1.5 0.5 0  2 0.5 0  2.5 0.5 0  3 0.5 0  3.5 0.5 0  4 0.5 0  4.5 0.5 0  5 0.5 0  5.5 0.5 0  6 0.5 0  6.5 0.5 0  7 0.5 0  7.5 0.5 0  8 0.5 0  8.5 0.5 0  9 0.5 0  9.5 0.5 0  10 0.5 0  10.5 0.5 0  11 0.5 0  11.5 0.5 0  12 0.5 0  12.5 0.5 0  13 0.5 0  13.5 0.5 0  14 0.5 0  14.5 0.5 0  15 0.5 0  15.5 0.5 0  16 0.5 0  16.5 0.5 0  17 0.5 0  17.5 0.5 0  18 0.5 0  18.5 0.5 0  19 0.5 0  19.5 0.5 0  20 0.5 0  0 1 0  0.5 1 0  1 1 0  1.5 1 0  2 1 0  2.5 1 0  3 1 0  3.5 1 0  4 1 0  4.5 1 0  5 1 0  5.5 1 0  6 1 0  6.5 1 0  7 1 0  7.5 1 0  8 1 0  8.5 1 0  9 1 0  9.5 1 0  10 1 0  10.5 1 0  11 1 0  11.5 1 0  12 1 0  12.5 1 0  13 1 0  13.5 1 0  14 1 0  14.5 1 0  15 1 0  15.5 1 0  16 1 0  16.5 1 0  17 1 0  17.5 1 0  18 1 0  18.5 1 0  19 1 0  19.5 1 0  20 1 0  0 1.5 0  0.5 1.5 0  1 1.5 0  1.5 1.5 0  2 1.5 0  2.5 1.5 0  3 1.5 0  3.5 1.5 0  4 1.5 0  4.5 1.5 0  5 1.5 0  5.5 1.5 0  6 1.5 0  6.5 1.5 0  7 1.5 0  7.5 1.5 0  8 1.5 0  8.5 1.5 0  9 1.5 0  9.5 1.5 0  10 1.5 0  10.5 1.5 0  11 1.5 0  11.5 1.5 0  12 1.5 0  12.5 1.5 0  13 1.5 0  13.5 1.5 0  14 1.5 0  14.5 1.5 0  15 1.5 0  15.5 1.5 0  16 1.5 0  16.5 1.5 0  17 1.5 0  17.5 1.5 0  18 1.5 0  18.5 1.5 0  19 1.5 0  19.5 1.5 0  20 1.5 0  0 2 0  0.5 2 0  1 2 0  1.5 2 0  2 2 0  2.5 2 0  3 2 0  3.5 2 0  4 2 0  4.5 2 0  5 2 0  5.5 2 0  6 2 0  6.5 2 0  7 2 0  7.5 2 0  8 2 0  8.5 2 0  9 2 0  9.5 2 0  10 2 0  10.5 2 0  11 2 0  11.5 2 0  12 2 0  12.5 2 0  13 2 0  13.5 2 0  14 2 0  14.5 2 0  15 2 0  15.5 2 0  16 2 0  16.5 2 0  17 2 0  17.5 2 0  18 2 0  18.5 2 0  19 2 0  19.5 2 0  20 2 0  0 2.5 0  0.5 2.5 0  1 2.5 0  1.5 2.5 0  2 2.5 0  2.5 2.5 0  3 2.5 0  3.5 2.5 0  4 2.5 0  4.5 2.5 0  5 2.5 0  5.5 2.5 0  6 2.5 0  6.5 2.5 0  7 2.5 0  7.5 2.5 0  8 2.5 0  8.5 2.5 0  9 2.5 0  9.5 2.5 0  10 2.5 0  10.5 2.5 0  11 2.5 0  11.5 2.5 0  12 2.5 0  12.5 2.5 0  13 2.5 0  13.5 2.5 0  14 2.5 0  14.5 2.5 0  15 2.5 0  15.5 2.5 0  16 2.5 0  16.5 2.5 0  17 2.5 0  17.5 2.5 0  18 2.5 0  18.5 2.5 0  19 2.5 0  19.5 2.5 0  20 2.5 0  0 3 0  0.5 3 0  1 3 0  1.5 3 0  2 3 0  2.5 3 0  3 3 0  3.5 3 0  4 3 0  4.5 3 0  5 3 0  5.5 3 0  6 3 0  6.5 3 0  7 3 0  7.5 3 0  8 3 0  8.5 3 0  9 3 0  9.5 3 0  10 3 0  10.5 3 0  11 3 0  11.5 3 0  12 3 0  12.5 3 0  13 3 0  13.5 3 0  14 3 0  14.5 3 0  15 3 0  15.5 3 0  16 3 0  16.5 3 0  17 3 0  17.5 3 0  18 3 0  18.5 3 0  19 3 0  19.5 3 0  20 3 0  0 3.5 0  0.5 3.5 0  1 3.5 0  1.5 3.5 0  2 3.5 0  2.5 3.5 0  3 3.5 0  3.5 3.5 0  4 3.5 0  4.5 3.5 0  5 3.5 0  5.5 3.5 0  6 3.5 0  6.5 3.5 0  7 3.5 0  7.5 3.5 0  8 3.5 0  8.5 3.5 0  9 3.5 0  9.5 3.5 0  10 3.5 0  10.5 3.5 0  11 3.5 0  11.5 3.5 0  12 3.5 0  12.5 3.5 0  13 3.5 0  13.5 3.5 0  14 3.5 0  14.5 3.5 0  15 3.5 0  15.5 3.5 0  16 3.5 0  16.5 3.5 0  17 3.5 0  17.5 3.5 0  18 3.5 0  18.5 3.5 0  19 3.5 0  19.5 3.5 0  20 3.5 0  0 4 0  0.5 4 0  1 4 0  1.5 4 0  2 4 0  2.5 4 0  3 4 0  3.5 4 0  4 4 0  4.5 4 0  5 4 0  5.5 4 0  6 4 0  6.5 4 0  7 4 0  7.5 4 0  8 4 0  8.5 4 0  9 4 0  9.5 4 0  10 4 0  10.5 4 0  11 4 0  11.5 4 0  12 4 0  12.5 4 0  13 4 0  13.5 4 0  14 4 0  14.5 4 0  15 4 0  15.5 4 0  16 4 0  16.5 4 0  17 4 0  17.5 4 0  18 4 0  18.5 4 0  19 4 0  19.5 4 0  20 4 0  0 4.5 0  0.5 4.5 0  1 4.5 0  1.5 4.5 0  2 4.5 0  2.5 4.5 0  3 4.5 0  3.5 4.5 0  4 4.5 0  4.5 4.5 0  5 4.5 0  5.5 4.5 0  6 4.5 0  6.5 4.5 0  7 4.5 0  7.5 4.5 0  8 4.5 0  8.5 4.5 0  9 4.5 0  9.5 4.5 0  10 4.5 0  10.5 4.5 0  11 4.5 0  11.5 4.5 0  12 4.5 0  12.5 4.5 0  13 4.5 0  13.5 4.5 0  14 4.5 0  14.5 4.5 0  15 4.5 0  15.5 4.5 0  16 4.5 0  16.5 4.5 0  17 4.5 0  17.5 4.5 0  18 4.5 0  18.5 4.5 0  19 4.5 0  19.5 4.5 0  20 4.5 0  0 5 0  0.5 5 0  1 5 0  1.5 5 0  2 5 0  2.5 5 0  3 5 0  3.5 5 0  4 5 0  4.5 5 0  5 5 0  5.5 5 0  6 5 0  6.5 5 0  7 5 0  7.5 5 0  8 5 0  8.5 5 0  9 5 0  9.5 5 0  10 5 0  10.5 5 0  11 5 0  11.5 5 0  12 5 0  12.5 5 0  13 5 0  13.5 5 0  14 5 0  14.5 5 0  15 5 0  15.5 5 0  16 5 0  16.5 5 0  17 5 0  17.5 5 0  18 5 0  18.5 5 0  19 5 0  19.5 5 0  20 5 0  0 5.5 0  0.5 5.5 0  1 5.5 0  1.5 5.5 0  2 5.5 0  2.5 5.5 0  3 5.5 0  3.5 5.5 0  4 5.5 0  4.5 5.5 0  5 5.5 0  5.5 5.5 0  6 5.5 0  6.5 5.5 0  7 5.5 0  7.5 5.5 0  8 5.5 0  8.5 5.5 0  9 5.5 0  9.5 5.5 0  10 5.5 0  10.5 5.5 0  11 5.5 0  11.5 5.5 0  12 5.5 0  12.5 5.5 0  13 5.5 0  13.5 5.5 0  14 5.5 0  14.5 5.5 0  15 5.5 0  15.5 5.5 0  16 5.5 0  16.5 5.5 0  17 5.5 0  17.5 5.5 0  18 5.5 0  18.5 5.5 0  19 5.5 0  19.5 5.5 0  20 5.5 0  0 6 0  0.5 6 0  1 6 0  1.5 6 0  2 6 0  2.5 6 0  3 6 0  3.5 6 0  4 6 0  4.5 6 0  5 6 0  5.5 6 0  6 6 0  6.5 6 0  7 6 0  7.5 6 0  8 6 0  8.5 6 0  9 6 0  9.5 6 0  10 6 0  10.5 6 0  11 6 0  11.5 6 0  12 6 0  12.5 6 0  13 6 0  13.5 6 0  14 6 0  14.5 6 0  15 6 0  15.5 6 0  16 6 0  16.5 6 0  17 6 0  17.5 6 0  18 6 0  18.5 6 0  19 6 0  19.5 6 0  20 6 0  0 6.5 0  0.5 6.5 0  1 6.5 0  1.5 6.5 0  2 6.5 0  2.5 6.5 0  3 6.5 0  3.5 6.5 0  4 6.5 0  4.5 6.5 0  5 6.5 0  5.5 6.5 0  6 6.5 0  6.5 6.5 0  7 6.5 0  7.5 6.5 0  8 6.5 0  8.5 6.5 0  9 6.5 0  9.5 6.5 0  10 6.5 0  10.5 6.5 0  11 6.5 0  11.5 6.5 0  12 6.5 0  12.5 6.5 0  13 6.5 0  13.5 6.5 0  14 6.5 0  14.5 6.5 0  15 6.5 0  15.5 6.5 0  16 6.5 0  16.5 6.5 0  17 6.5 0  17.5 6.5 0  18 6.5 0  18.5 6.5 0  19 6.5 0  19.5 6.5 0  20 6.5 0  0 7 0  0.5 7 0  1 7 0  1.5 7 0  2 7 0  2.5 7 0  3 7 0  3.5 7 0  4 7 0  4.5 7 0  5 7 0  5.5 7 0  6 7 0  6.5 7 0  7 7 0  7.5 7 0  8 7 0  8.5 7 0  9 7 0  9.5 7 0  10 7 0  10.5 7 0  11 7 0  11.5 7 0  12 7 0  12.5 7 0  13 7 0  13.5 7 0  14 7 0  14.5 7 0  15 7 0  15.5 7 0  16 7 0  16.5 7 0  17 7 0  17.5 7 0  18 7 0  18.5 7 0  19 7 0  19.5 7 0  20 7 0  0 7.5 0  0.5 7.5 0  1 7.5 0  1.5 7.5 0  2 7.5 0  2.5 7.5 0  3 7.5 0  3.5 7.5 0  4 7.5 0  4.5 7.5 0  5 7.5 0  5.5 7.5 0  6 7.5 0  6.5 7.5 0  7 7.5 0  7.5 7.5 0  8 7.5 0  8.5 7.5 0  9 7.5 0  9.5 7.5 0  10 7.5 0  10.5 7.5 0  11 7.5 0  11.5 7.5 0  12 7.5 0  12.5 7.5 0  13 7.5 0  13.5 7.5 0  14 7.5 0  14.5 7.5 0  15 7.5 0  15.5 7.5 0  16 7.5 0  16.5 7.5 0  17 7.5 0  17.5 7.5 0  18 7.5 0  18.5 7.5 0  19 7.5 0  19.5 7.5 0  20 7.5 0  0 8 0  0.5 8 0  1 8 0  1.5 8 0  2 8 0  2.5 8 0  3 8 0  3.5 8 0  4 8 0  4.5 8 0  5 8 0  5.5 8 0  6 8 0  6.5 8 0  7 8 0  7.5 8 0  8 8 0  8.5 8 0  9 8 0  9.5 8 0  10 8 0  10.5 8 0  11 8 0  11.5 8 0  12 8 0  12.5 8 0  13 8 0  13.5 8 0  14 8 0  14.5 8 0  15 8 0  15.5 8 0  16 8 0  16.5 8 0  17 8 0  17.5 8 0  18 8 0  18.5 8 0  19 8 0  19.5 8 0  20 8 0  0 8.5 0  0.5 8.5 0  1 8.5 0  1.5 8.5 0  2 8.5 0  2.5 8.5 0  3 8.5 0  3.5 8.5 0  4 8.5 0  4.5 8.5 0  5 8.5 0  5.5 8.5 0  6 8.5 0  6.5 8.5 0  7 8.5 0  7.5 8.5 0  8 8.5 0  8.5 8.5 0  9 8.5 0  9.5 8.5 0  10 8.5 0  10.5 8.5 0  11 8.5 0  11.5 8.5 0  12 8.5 0  12.5 8.5 0  13 8.5 0  13.5 8.5 0  14 8.5 0  14.5 8.5 0  15 8.5 0  15.5 8.5 0  16 8.5 0  16.5 8.5 0  17 8.5 0  17.5 8.5 0  18 8.5 0  18.5 8.5 0  19 8.5 0  19.5 8.5 0  20 8.5 0  0 9 0  0.5 9 0  1 9 0  1.5 9 0  2 9 0  2.5 9 0  3 9 0  3.5 9 0  4 9 0  4.5 9 0  5 9 0  5.5 9 0  6 9 0  6.5 9 0  7 9 0  7.5 9 0  8 9 0  8.5 9 0  9 9 0  9.5 9 0  10 9 0  10.5 9 0  11 9 0  11.5 9 0  12 9 0  12.5 9 0  13 9 0  13.5 9 0  14 9 0  14.5 9 0  15 9 0  15.5 9 0  16 9 0  16.5 9 0  17 9 0  17.5 9 0  18 9 0  18.5 9 0  19 9 0  19.5 9 0  20 9 0  0 9.5 0  0.5 9.5 0  1 9.5 0  1.5 9.5 0  2 9.5 0  2.5 9.5 0  3 9.5 0  3.5 9.5 0  4 9.5 0  4.5 9.5 0  5 9.5 0  5.5 9.5 0  6 9.5 0  6.5 9.5 0  7 9.5 0  7.5 9.5 0  8 9.5 0  8.5 9.5 0  9 9.5 0  9.5 9.5 0  10 9.5 0  10.5 9.5 0  11 9.5 0  11.5 9.5 0  12 9.5 0  12.5 9.5 0  13 9.5 0  13.5 9.5 0  14 9.5 0  14.5 9.5 0  15 9.5 0  15.5 9.5 0  16 9.5 0  16.5 9.5 0  17 9.5 0  17.5 9.5 0  18 9.5 0  18.5 9.5 0  19 9.5 0  19.5 9.5 0  20 9.5 0  0 10 0  0.5 10 0  1 10 0  1.5 10 0  2 10 0  2.5 10 0  3 10 0  3.5 10 0  4 10 0  4.5 10 0  5 10 0  5.5 10 0  6 10 0  6.5 10 0  7 10 0  7.5 10 0  8 10 0  8.5 10 0  9 10 0  9.5 10 0  10 10 0  10.5 10 0  11 10 0  11.5 10 0  12 10 0  12.5 10 0  13 10 0  13.5 10 0  14 10 0  14.5 10 0  15 10 0  15.5 10 0  16 10 0  16.5 10 0  17 10 0  17.5 10 0  18 10 0  18.5 10 0  19 10 0  19.5 10 0  20 10 0  0 10.5 0  0.5 10.5 0  1 10.5 0  1.5 10.5 0  2 10.5 0  2.5 10.5 0  3 10.5 0  3.5 10.5 0  4 10.5 0  4.5 10.5 0  5 10.5 0  5.5 10.5 0  6 10.5 0  6.5 10.5 0  7 10.5 0  7.5 10.5 0  8 10.5 0  8.5 10.5 0  9 10.5 0  9.5 10.5 0  10 10.5 0  10.5 10.5 0  11 10.5 0  11.5 10.5 0  12 10.5 0  12.5 10.5 0  13 10.5 0  13.5 10.5 0  14 10.5 0  14.5 10.5 0  15 10.5 0  15.5 10.5 0  16 10.5 0  16.5 10.5 0  17 10.5 0  17.5 10.5 0  18 10.5 0  18.5 10.5 0  19 10.5 0  19.5 10.5 0  20 10.5 0  0 11 0  0.5 11 0  1 11 0  1.5 11 0  2 11 0  2.5 11 0  3 11 0  3.5 11 0  4 11 0  4.5 11 0  5 11 0  5.5 11 0  6 11 0  6.5 11 0  7 11 0  7.5 11 0  8 11 0  8.5 11 0  9 11 0  9.5 11 0  10 11 0  10.5 11 0  11 11 0  11.5 11 0  12 11 0  12.5 11 0  13 11 0  13.5 11 0  14 11 0  14.5 11 0  15 11 0  15.5 11 0  16 11 0  16.5 11 0  17 11 0  17.5 11 0  18 11 0  18.5 11 0  19 11 0  19.5 11 0  20 11 0  0 11.5 0  0.5 11.5 0  1 11.5 0  1.5 11.5 0  2 11.5 0  2.5 11.5 0  3 11.5 0  3.5 11.5 0  4 11.5 0  4.5 11.5 0  5 11.5 0  5.5 11.5 0  6 11.5 0  6.5 11.5 0  7 11.5 0  7.5 11.5 0  8 11.5 0  8.5 11.5 0  9 11.5 0  9.5 11.5 0  10 11.5 0  10.5 11.5 0  11 11.5 0  11.5 11.5 0  12 11.5 0  12.5 11.5 0  13 11.5 0  13.5 11.5 0  14 11.5 0  14.5 11.5 0  15 11.5 0  15.5 11.5 0  16 11.5 0  16.5 11.5 0  17 11.5 0  17.5 11.5 0  18 11.5 0  18.5 11.5 0  19 11.5 0  19.5 11.5 0  20 11.5 0  0 12 0  0.5 12 0  1 12 0  1.5 12 0  2 12 0  2.5 12 0  3 12 0  3.5 12 0  4 12 0  4.5 12 0  5 12 0  5.5 12 0  6 12 0  6.5 12 0  7 12 0  7.5 12 0  8 12 0  8.5 12 0  9 12 0  9.5 12 0  10 12 0  10.5 12 0  11 12 0  11.5 12 0  12 12 0  12.5 12 0  13 12 0  13.5 12 0  14 12 0  14.5 12 0  
[...]
<PointData  Vectors="f_2975-0"> 
<DataArray  type="Float64"  Name="f_2975-0"  NumberOfComponents="3" format="ascii">0.0000000000000000e+00 0.0000000000000000e+00 0.0000000000000000e+00  7.1794770746522333e-06 0.0000000000000000e+00 0.0000000000000000e+00  7.3923478191974919e-06 0.0000000000000000e+00 0.0000000000000000e+00  -1.0332668551246451e-05 0.0000000000000000e+00 0.0000000000000000e+00  -5.4859526428895583e-05 0.0000000000000000e+00 0.0000000000000000e+00  -1.3460451055636872e-04 0.0000000000000000e+00 0.0000000000000000e+00  -2.5754398698641821e-04 0.0000000000000000e+00 0.0000000000000000e+00  -4.3108116001975286e-04 0.0000000000000000e+00 0.0000000000000000e+00  -6.6188802720746189e-04 0.0000000000000000e+00 0.0000000000000000e+00  -9.5572504353736256e-04 0.0000000000000000e+00 0.0000000000000000e+00  -1.3172332768618701e-03 0.0000000000000000e+00 0.0000000000000000e+00  -1.7496935902690091e-03 0.0000000000000000e+00 0.0000000000000000e+00  -2.2547472038075026e-03 0.0000000000000000e+00 0.0000000000000000e+00  -2.8320716274798713e-03 0.0000000000000000e+00 0.0000000000000000e+00  -3.4790055308149717e-03 0.0000000000000000e+00 0.0000000000000000e+00  -4.1901156625967738e-03 0.0000000000000000e+00 0.0000000000000000e+00  -4.9566984596244104e-03 0.0000000000000000e+00 0.0000000000000000e+00  -5.7662084680128864e-03 0.0000000000000000e+00 0.0000000000000000e+00  -6.6016051102601933e-03 0.0000000000000000e+00 0.0000000000000000e+00  -7.4406086083775936e-03 0.0000000000000000e+00 0.0000000000000000e+00  -8.2548549331277320e-03 0.0000000000000000e+00 0.0000000000000000e+00  -9.0089383686481096e-03 0.0000000000000000e+00 0.0000000000000000e+00  -9.6593284906561511e-03 0.0000000000000000e+00 0.0000000000000000e+00  -1.0153145824841059e-02 0.0000000000000000e+00 0.0000000000000000e+00  -1.0426776869202393e-02 0.0000000000000000e+00 0.0000000000000000e+00  -1.0404304117206623e-02 0.0000000000000000e+00 0.0000000000000000e+00  -9.9957196514657756e-03 0.0000000000000000e+00 0.0000000000000000e+00  -9.0948810369616221e-03 0.0000000000000000e+00 0.0000000000000000e+00  -7.5771545902480388e-03 0.0000000000000000e+00 0.0000000000000000e+00  -5.2966721741122946e-03 0.0000000000000000e+00 0.0000000000000000e+00  -2.0831013551055842e-03 0.0000000000000000e+00 0.0000000000000000e+00  2.2622080662854926e-03 0.0000000000000000e+00 0.0000000000000000e+00  7.9708902783347073e-03 0.0000000000000000e+00 0.0000000000000000e+00  1.5313306582264843e-02 0.0000000000000000e+00 0.0000000000000000e+00  2.4605739981299134e-02 0.0000000000000000e+00 0.0000000000000000e+00  3.6219583492209190e-02 0.0000000000000000e+00 0.0000000000000000e+00  5.0593331993585650e-02 0.0000000000000000e+00 0.0000000000000000e+00  6.8248656506722724e-02 0.0000000000000000e+00 0.0000000000000000e+00  8.9812854569025574e-02 0.0000000000000000e+00 0.0000000000000000e+00  1.1605319747234094e-01 0.0000000000000000e+00 0.0000000000000000e+00  1.4794064299647344e-01 0.0000000000000000e+00 0.0000000000000000e+00  0.0000000000000000e+00 7.1794770747126394e-06 0.0000000000000000e+00  1.3945289920599709e-05 1.3945289919702462e-05 0.0000000000000000e+00  1.8534011182110914e-05 2.9817249558854135e-05 0.0000000000000000e+00  5.4732953847436119e-06 5.4901060977187711e-05 0.0000000000000000e+00  -3.4203263774733444e-05 8.9512516847715742e-05 0.0000000000000000e+00  -1.0902750657652924e-04 1.3368673970815757e-04 0.0000000000000000e+00  -2.2702425257274569e-04 1.8730019192369333e-04 0.0000000000000000e+00  -3.9561848928832853e-04 2.5014222167572500e-04 0.0000000000000000e+00  -6.2149535147559343e-04 3.2193967805688796e-04 0.0000000000000000e+00  -9.1042631973013060e-04 4.0236297231361246e-04 0.0000000000000000e+00  -1.2670638748548072e-03 4.9102567465054850e-04 0.0000000000000000e+00  -1.6947017653734405e-03 5.8748182189278218e-04 0.0000000000000000e+00  -2.1949961064284063e-03 6.9122235179619972e-04 0.0000000000000000e+00  -2.7676415992978856e-03 8.0167119984469754e-04 0.0000000000000000e+00  -3.4099965455884032e-03 9.1818132165454155e-04 0.0000000000000000e+00  -4.1166498101444758e-03 1.0400308221919482e-03 0.0000000000000000e+00  -4.8789223842926601e-03 1.1664193534542369e-03 0.0000000000000000e+00  -5.6842956731948720e-03 1.2964649443804358e-03 0.0000000000000000e+00  -6.5157580341361314e-03 1.4292014361926416e-03 0.0000000000000000e+00  -7.3510603663587805e-03 1.5635767081451119e-03 0.0000000000000000e+00  -8.1618706104795297e-03 1.6984518893746431e-03 0.0000000000000000e+00  -8.9128157335049973e-03 1.8326017611709712e-03 0.0000000000000000e+00  -9.5603979837688841e-03 1.9647165583045862e-03 0.0000000000000000e+00  -1.0051769667653960e-02 2.0934053769721970e-03 0.0000000000000000e+00  -1.0323347116842024e-02 2.2172013880380754e-03 0.0000000000000000e+00  -1.0299239466866023e-02 2.3345690355907668e-03 0.0000000000000000e+00  -9.8894607979668238e-03 2.4439133690868989e-03 0.0000000000000000e+00  -8.9878843429289524e-03 2.5435916089945041e-03 0.0000000000000000e+00  -7.4698838019839420e-03 2.6319269762886477e-03 0.0000000000000000e+00  -5.1895878558584898e-03 2.7072247208650602e-03 0.0000000000000000e+00  -1.9766476229407951e-03 2.7677901582858749e-03 0.0000000000000000e+00  2.3676200567844894e-03 2.8119483632857208e-03 0.0000000000000000e+00  8.0749027484636107e-03 2.8380649589177854e-03 0.0000000000000000e+00  1.5415639963929030e-02 2.8445671409932137e-03 0.0000000000000000e+00  2.4706221374820724e-02 2.8299635925501956e-03 0.0000000000000000e+00  3.6318172156304722e-02 2.7928612298292375e-03 0.0000000000000000e+00  5.0690111826666238e-02 2.7319769197677009e-03 0.0000000000000000e+00  6.8343664782833519e-02 2.6461516732781696e-03 0.0000000000000000e+00  8.9905111786544298e-02 2.5344319264408244e-03 0.0000000000000000e+00  1.1613527645463396e-01 2.3965216315344783e-03 0.0000000000000000e+00  1.4796801400830936e-01 2.2344851799986879e-03 0.0000000000000000e+00  0.0000000000000000e+00 7.3923478192968006e-06 0.0000000000000000e+00  2.9817249560560679e-05 1.8534011182910154e-05 0.0000000000000000e+00  4.9425475160508442e-05 4.9425475159658915e-05 0.0000000000000000e+00  5.1140957221203643e-05 9.9658371007131484e-05 0.0000000000000000e+00  2.6234837947122171e-05 1.6915045459689026e-04 0.0000000000000000e+00  -3.3781724031281734e-05 2.5774042034243952e-04 0.0000000000000000e+00  -1.3694864792998358e-04 3.6514765952600837e-04 0.0000000000000000e+00  -2.9071621584669008e-04 4.9096684301966006e-04 0.0000000000000000e+00  -5.0179615841279459e-04 6.3467257609578324e-04 0.0000000000000000e+00  -7.7598819259571870e-04 7.9562248633903800e-04 0.0000000000000000e+00  -1.1179763825939894e-03 9.7305635259394463e-04 0.0000000000000000e+00  -1.5310908803897044e-03 1.1660920683609869e-03 0.0000000000000000e+00  -2.0170300735196547e-03 1.3737196179218543e-03 0.0000000000000000e+00  -2.5755374949235389e-03 1.5947939690068398e-03 0.0000000000000000e+00  -3.2040272420040621e-03 1.8280275147466970e-03 0.0000000000000000e+00  -3.8971511005383807e-03 2.0719825373579628e-03 0.0000000000000000e+00  -4.6463000397674349e-03 2.3250640916743699e-03 0.0000000000000000e+00  -5.4390321998535052e-03 2.5855136831085400e-03 0.0000000000000000e+00  -6.2584188859530349e-03 2.8514041163447143e-03 0.0000000000000000e+00  -7.0822993516661114e-03 3.1206359052885070e-03 0.0000000000000000e+00  -7.8824342101638280e-03 3.3909356510648100e-03 0.0000000000000000e+00  -8.6235460296782054e-03 3.6598568099076001e-03 0.0000000000000000e+00  -9.2622338809517195e-03 3.9247832804045696e-03 0.0000000000000000e+00  -9.7457460762232218e-03 4.1829362375596923e-03 0.0000000000000000e+00  -1.0010591762701890e-02 4.4313846246721899e-03 0.0000000000000000e+00  -9.9809669937993371e-03 4.6670596796071799e-03 0.0000000000000000e+00  -9.5669638424684556e-03 4.8867738145452295e-03 0.0000000000000000e+00  -8.6625212876246267e-03 5.0872440830957337e-03 0.0000000000000000e+00  -7.1430629571359542e-03 5.2651203490009365e-03 0.0000000000000000e+00  -4.8627478866382105e-03 5.4170181121991415e-03 0.0000000000000000e+00  -1.6512341545372687e-03 5.5395557432921048e-03 0.0000000000000000e+00  2.6901815054227942e-03 5.6293956222107705e-03 0.0000000000000000e+00  8.3932368716064572e-03 5.6832883647501137e-03 0.0000000000000000e+00  1.5728453043530041e-02 5.6981189573402464e-03 0.0000000000000000e+00  2.5012329353653374e-02 5.6709532859710041e-03 0.0000000000000000e+00  3.6616514071853470e-02 5.5990835921822680e-03 0.0000000000000000e+00  5.0979721436494596e-02 5.4800726397431750e-03 0.0000000000000000e+00  6.8623538558602176e-02 5.3117977079320264e-03 0.0000000000000000e+00  9.0173851706014455e-02 5.0924725794079650e-03 0.0000000000000000e+00  1.1639050637722567e-01 4.8204160043945291e-03 0.0000000000000000e+00  1.4820921932040007e-01 4.4920902981734900e-03 0.0000000000000000e+00  0.0000000000000000e+00 -1.0332668550121593e-05 0.0000000000000000e+00  5.4901060978817443e-05 5.4732953807324374e-06 0.0000000000000000e+00  9.9658371009494679e-05 5.1140957220524777e-05 0.0000000000000000e+00  1.2623388385429475e-04 1.2623388384894145e-04 0.0000000000000000e+00  1.2609550548240575e-04 2.3044853134638617e-04 0.0000000000000000e+00  9.0816583839429052e-05 3.6342616908602299e-04 0.0000000000000000e+00  1.2370224054918101e-05 5.2467774793595989e-04 0.0000000000000000e+00  -1.1670543069213914e-04 7.1356682125443458e-04 0.0000000000000000e+00  -3.0314847729845867e-04 9.2930104218774570e-04 0.0000000000000000e+00  -5.5279595899072724e-04 1.1709244749062832e-03 0.0000000000000000e+00  -8.7037925885295243e-04 1.4373093611683818e-03 0.0000000000000000e+00  -1.2592860592231686e-03 1.7271468485086077e-03 0.0000000000000000e+00  -1.7212830834001541e-03 2.0389366470953988e-03 0.0000000000000000e+00  -2.2561936030593387e-03 2.3709758838207826e-03 0.0000000000000000e+00  -2.8615232877109639e-03 2.7213475718059761e-03 0.0000000000000000e+00  -3.5320275069711943e-03 3.0879091770250385e-03 0.0000000000000000e+00  -4.2592127005936396e-03 3.4682817937248338e-03 0.0000000000000000e+00  -5.0307638975789007e-03 3.8598404649539076e-03 0.0000000000000000e+00  -5.8298898618522818e-03 4.2597062108898172e-03 0.0000000000000000e+00  -6.6345766118039700e-03 4.6647403577569045e-03 0.0000000000000000e+00  -7.4167391181383753e-03 5.0715417883943955e-03 0.0000000000000000e+00  -8.1412597070176576e-03 5.4764477594165875e-03 0.0000000000000000e+00  -8.7648999123869607e-03 5.8755389426341604e-03 0.0000000000000000e+00  -9.2350700027448562e-03 6.2646493466414757e-03 0.0000000000000000e+00  -9.4884368436097856e-03 6.6393817511098000e-03 0.0000000000000000e+00  -9.4493457335949344e-03 6.9951292366379290e-03 0.0000000000000000e+00  -9.0280248136651170e-03 7.3271033093832583e-03 0.0000000000000000e+00  -8.1185308415068977e-03 7.6303689951677002e-03 0.0000000000000000e+00  -6.5963815071559944e-03 7.8998871029615173e-03 0.0000000000000000e+00  -4.3158005841985028e-03 8.1305636227208874e-03 0.0000000000000000e+00  -1.1064759728797921e-03 8.3173059150119955e-03 0.0000000000000000e+00  3.2303059657465853e-03 8.4550849535996141e-03 0.0000000000000000e+00  8.9263380592223950e-03 8.5390023730949755e-03 0.0000000000000000e+00  1.6252243996471641e-02 8.5643603999893663e-03 0.0000000000000000e+00  2.5524673099263439e-02 8.5267317483463927e-03 0.0000000000000000e+00  3.7115465728302578e-02 8.4220245855570822e-03 0.0000000000000000e+00  5.1463556884883348e-02 8.2465319465327511e-03 0.0000000000000000e+00  6.9090756975266801e-02 7.9969348872439092e-03 0.0000000000000000e+00  9.0623126761053316e-02 7.6701607711224850e-03 0.0000000000000000e+00  1.1682053416737130e-01 7.2628076211893860e-03 0.0000000000000000e+00  1.4861828263447457e-01 6.7694889474389751e-03 0.0000000000000000e+00  0.0000000000000000e+00 -5.4859526430701099e-05 0.0000000000000000e+00  8.9512516843691278e-05 -3.4203263775551908e-05 0.0000000000000000e+00  1.6915045459797498e-04 2.6234837943104965e-05 0.0000000000000000e+00  2.3044853134946485e-04 1.2609550547706640e-04 0.0000000000000000e+00  2.6494122602917328e-04 2.6494122602377531e-04 0.0000000000000000e+00  2.6424916780648213e-04 4.4224686277581301e-04 0.0000000000000000e+00  2.2035590297054107e-04 6.5733132433010036e-04 0.0000000000000000e+00  1.2578692222987294e-04 9.0933240100817144e-04 0.0000000000000000e+00  -2.6225746131487172e-05 1.1971921862704239e-03 0.0000000000000000e+00  -2.4156453807348431e-04 1.5196440800104524e-03 0.0000000000000000e+00  -5.2502149122633747e-04 1.8751991470506765e-03 0.0000000000000000e+00  -8.8006053531532527e-04 2.2621314927184712e-03 0.0000000000000000e+00  -1.3085407902358607e-03 2.6784627832937111e-03 0.0000000000000000e+00  -1.8103946354233453e-03 3.1219461949952339e-03 0.0000000000000000e+00  -2.3832539718428988e-03 3.5900501820888696e-03 0.0000000000000000e+00  -3.0220176714719220e-03 4.0799425508550426e-03 0.0000000000000000e+00  -3.7183527379238148e-03 4.5884754116358104e-03 0.0000000000000000e+00  -4.4601211834034487e-03 5.1121716563952676e-03 0.0000000000000000e+00  -5.2307240325811964e-03 5.6472136763714023e-03 0.0000000000000000e+00  -6.0083531406072074e-03 6.1894350943733851e-03 0.0000000000000000e+00  -6.7651405762235890e-03 6.7343163372937031e-03 0.0000000000000000e+00  -7.4661940510117502e-03 7.2769849145649743e-03 0.0000000000000000e+00  -8.0685051036379993e-03 7.8122212914467793e-03 0.0000000000000000e+00  -8.5197142434008406e-03 8.3344712480325853e-03 0.0000000000000000e+00  -8.7567137119601325e-03 8.8378655878986016e-03 0.0000000000000000e+00  -8.7040635228054618e-03 9.3162479968362643e-03 0.0000000000000000e+00  -8.2721894293659899e-03 9.7632117430763287e-03 0.0000000000000000e+00  -7.3553217014838716e-03 1.0172145745255606e-02 0.0000000000000000e+00  -5.8291200185054638e-03 1.0536290299174403e-02 0.0000000000000000e+00  -3.5479109585821282e-03 1.0848802433228704e-02 0.0000000000000000e+00  -3.4143839160675988e-04 1.1102830431319852e-02 0.0000000000000000e+00  3.9890094882502041e-03 1.1291596484047055e-02 0.0000000000000000e+00  9.6752843074167528e-03 1.1408485634440337e-02 0.0000000000000000e+00  1.6988134229150225e-02 1.1447138005362564e-02 0.0000000000000000e+00  2.6244401327031930e-02 1.1401539287695260e-02 0.0000000000000000e+00  3.7816185316759128e-02 1.1266100413518733e-02 0.0000000000000000e+00  5.2142736657684777e-02 1.1035708159810885e-02 0.0000000000000000e+00  6.9746204575865348e-02 1.0705707840974223e-02 0.0000000000000000e+00  9.1252921348797950e-02 1.0271741151022333e-02 0.0000000000000000e+00  1.1742275292417252e-01 9.7293311161360130e-03 0.0000000000000000e+00  1.4919039686763652e-01 9.0732557289716059e-03 0.0000000000000000e+00  0.0000000000000000e+00 -1.3460451055661250e-04 0.0000000000000000e+00  1.3368673971232581e-04 -1.0902750657822114e-04 0.0000000000000000e+00  2.5774042034530344e-04 -3.3781724041743689e-05 0.0000000000000000e+00  3.6342616909044192e-04 9.0816583835389165e-05 0.0000000000000000e+00  4.4224686277403145e-04 2.6424916780423002e-04 0.0000000000000000e+00  4.8584908342840297e-04 4.8584908343272140e-04 0.0000000000000000e+00  4.8622147826209719e-04 7.5476030673173825e-04 0.0000000000000000e+00  4.3587288546820024e-04 1.0699095665353299e-03 0.0000000000000000e+00  3.2799940139868446e-04 1.4299870750896023e-03 0.0000000000000000e+00  1.5666399293405147e-04 1.8334290278865981e-03 0.0000000000000000e+00  -8.2999168122711942e-05 2.2783994418584114e-03 0.0000000000000000e+00  -3.9454793877195397e-04 2.7627708029722992e-03 0.0000000000000000e+00  -7.7995649273645065e-04 3.2841036458923912e-03 0.0000000000000000e+00  -1.2392942401068525e-03 3.8396254360070045e-03 0.0000000000000000e+00  -1.7703526797234318e-03 4.4262092500759855e-03 0.0000000000000000e+00  -2.3682130798291343e-03 5.0403528483801618e-03 0.0000000000000000e+00  -3.0247474184390659e-03 5.6781588243638133e-03 0.0000000000000000e+00  -3.7280445001356658e-03 6.3353166098128067e-03 0.0000000000000000e+00  -4.4617525749741961e-03 7.0070872043137980e-03 0.0000000000000000e+00  -5.2043290664639738e-03 7.6882915818775339e-03 0.0000000000000000e+00  -5.9281870861793463e-03 8.3733038019188043e-03 0.0000000000000000e+00  -6.5987271524196459e-03 9.0560499114068303e-03 0.0000000000000000e+00  -7.1732407718604081e-03 9.7300137632660016e-03 0.0000000000000000e+00  -7.5996700570186556e-03 1.0388250886733031e-02 0.0000000000000000e+00  -7.8152040315044025e-03 1.1023411519595719e-02 0.0000000000000000e+00  -7.7446873069303649e-03 1.1627773839907382e-02 0.0000000000000000e+00  -7.2988098459015249e-03 1.2193288304856376e-02 0.0000000000000000e+00  -6.3720368029250938e-03 1.2711633802510697e-02 0.0000000000000000e+00  -4.8402239218126178e-03 1.3174286030250091e-02 0.0000000000000000e+00  -2.5578452093875377e-03 1.3572598108464435e-02 0.0000000000000000e+00  6.4526648360597289e-04 1.3897892884703951e-02 0.0000000000000000e+00  4.9678018103649062e-03 1.4141565627149770e-02 0.0000000000000000e+00  1.0641667442303248e-02 1.4295194746231449e-02 0.0000000000000000e+00  1.7937749291162246e-02 1.4350656614906638e-02 0.0000000000000000e+00  2.7173113065809579e-02 1.4300238052535866e-02 0.0000000000000000e+00  3.8720164941081825e-02 1.4136735773893058e-02 0.0000000000000000e+00  5.3018529083410905e-02 1.3853524933738729e-02 0.0000000000000000e+00  7.0590755539526734e-02 1.3444568965926759e-02 0.0000000000000000e+00  9.2063526903741352e-02 1.2904338724329896e-02 0.0000000000000000e+00  1.1819692704578930e-01 1.2227646139390130e-02 0.0000000000000000e+00  1.4992589244626744e-01 1.1409564099138991e-02 0.0000000000000000e+00  0.0000000000000000e+00 -2.5754398699075112e-04 0.0000000000000000e+00  1.8730019192485369e-04 -2.2702425257842374e-04 0.0000000000000000e+00  3.6514765952899394e-04 -1.3694864793208439e-04 0.0000000000000000e+00  5.2467774793354602e-04 1.2370224051991424e-05 0.0000000000000000e+00  6.5733132432357639e-04 2.2035590296997168e-04 0.0000000000000000e+00  7.5476030672681272e-04 4.8622147825927404e-04 0.0000000000000000e+00  8.0895306377737537e-04 8.0895306377965306e-04 0.0000000000000000e+00  8.1239870363261114e-04 1.1872831277926074e-03 0.0000000000000000e+00  7.5825252103027009e-04 1.6196677677548226e-03 0.0000000000000000e+00  6.4051483918868362e-04 2.1042649737799072e-03 0.0000000000000000e+00  4.5423411671411697e-04 2.6389119965090102e-03 0.0000000000000000e+00  1.9574224417310271e-04 3.2211012707008117e-03 0.0000000000000000e+00  -1.3707118878140213e-04 3.8479549969871150e-03 0.0000000000000000e+00  -5.4443904709649920e-04 4.5161987866897237e-03 0.0000000000000000e+00  -1.0243443924266358e-03 5.2221349441442097e-03 0.0000000000000000e+00  -1.5720885990668757e-03 5.9616160858903819e-03 0.0000000000000000e+00  -2.1797921728076339e-03 6.7300199093188462e-03 0.0000000000000000e+00  -2.8358200884137500e-03 7.5222260339701001e-03 0.0000000000000000e+00  -3.5241228711355654e-03 8.3325959488684126e-03 0.0000000000000000e+00  -4.2234839311093373e-03 9.1549572048337333e-03 0.0000000000000000e+00  -4.9066627357051843e-03 9.9825930867759594e-03 0.0000000000000000e+00  -5.5394221546765559e-03 1.0808239081868207e-02 0.0000000000000000e+00  -6.0794265697620663e-03 1.1624087515941579e-02 0.0000000000000000e+00  -6.4749948760627505e-03 1.2421801755132264e-02 0.0000000000000000e+00  -6.6636890111150312e-03 1.3192541351232146e-02 0.0000000000000000e+00  -6.5707137175426396e-03 1.3926999435868214e-02 0.0000000000000000e+00  -6.1070963248257290e-03 1.4615453525961483e-02 0.0000000000000000e+00  -5.1676056737412351e-03 1.5247830674249783e-02 0.0000000000000000e+00  -3.6283558686569291e-03 1.5813787561732750e-02 0.0000000000000000e+00  -1.3440218745296051e-03 1.6302805655581964e-02 0.0000000000000000e+00  1.8554320036715647e-03 1.6704300905398414e-02 0.0000000000000000e+00  6.1686460496876497e-03 1.7007746564655313e-02 0.0000000000000000e+00  1.1827567968894006e-02 1.7202806509729246e-02 0.0000000000000000e+00  1.9103224098949229e-02 1.7279474744097176e-02 0.0000000000000000e+00  2.8312923956181697e-02 1.7228214416875946e-02 0.0000000000000000e+00  3.9829418183827216e-02 1.70400864915346