<?xml version="1.0"?>
<VTKFile type="UnstructuredGrid"  version="0.1"  >
<UnstructuredGrid>
<Piece  NumberOfPoints="1681" NumberOfCells="3200">
<Points>
<DataArray  type="Float64"  NumberOfComponents="3"  format="ascii">0 0 0  0.5 0 0  1 0 0  1.5 0 0  2 0 0  2.5 0 0  3 0 0  3.5 0 0  4 0 0  4.5 0 0  5 0 0  5.5 0 0  6 0 0  6.5 0 0  7 0 0  7.5 0 0  8 0 0  8.5 0 0  9 0 0  9.5 0 0  10 0 0  10.5 0 0  11 0 0  11.5 0 0  12 0 0  12.5 0 0  13 0 0  13.5 0 0  14 0 0  14.5 0 0  15 0 0  15.5 0 0  16 0 0  16.5 0 0  17 0 0  17.5 0 0  18 0 0  18.5 0 0  19 0 0  19.5 0 0  20 0 0  0 0.5 0  0.5 0.5 0  1 0.5 0  1.5 0.5 0  2 0.5 0  2.5 0.5 0  3 0.5 0  3.5 0.5 0  4 0.5 0  4.5 0.5 0  5 0.5 0  5.5 0.5 0  6 0.5 0  6.5 0.5 0  7 0.5 0  7.5 0.5 0  8 0.5 0  8.5 0.5 0  9 0.5 0  9.5 0.5 0  10 0.5 0  10.5 0.5 0  11 0.5 0  11.5 0.5 0  12 0.5 0  12.5 0.5 0  13 0.5 0  13.5 0.5 0  14 0.5 0  14.5 0.5 0  15 0.5 0  15.5 0.5 0  16 0.5 0  16.5 0.5 0  17 0.5 0  17.5 0.5 0  18 0.5 0  18.5 0.5 0  19 0.5 0  19.5 0.5 0  20 0.5 0  0 1 0  0.5 1 0  1 1 0  1.5 1 0  2 1 0  2.5 1 0  3 1 0  3.5 1 0  4 1 0  4.5 1 0  5 1 0  5.5 1 0  6 1 0  6.5 1 0  7 1 0  7.5 1 0  8 1 0  8.5 1 0  9 1 0  9.5 1 0  10 1 0  10.5 1 0  11 1 0  11.5 1 0  12 1 0  12.5 1 0  13 1 0  13.5 1 0  14 1 0  14.5 1 0  15 1 0  15.5 1 0  16 1 0  16.5 1 0  17 1 0  17.5 1 0  18 1 0  18.5 1 0  19 1 0  19.5 1 0  20 1 0  0 1.5 0  0.5 1.5 0  1 1.5 0  1.5 1.5 0  2 1.5 0  2.5 1.5 0  3 1.5 0  3.5 1.5 0  4 1.5 0  4.5 1.5 0  5 1.5 0  5.5 1.5 0  6 1.5 0  6.5 1.5 0  7 1.5 0  7.5 1.5 0  8 1.5 0  8.5 1.5 0  9 1.5 0  9.5 1.5 0  10 1.5 0  10.5 1.5 0  11 1.5 0  11.5 1.5 0  12 1.5 0  12.5 1.5 0  13 1.5 0  13.5 1.5 0  14 1.5 0  14.5 1.5 0  15 1.5 0  15.5 1.5 0  16 1.5 0  16.5 1.5 0  17 1.5 0  17.5 1.5 0  18 1.5 0  18.5 1.5 0  19 1.5 0  19.5 1.5 0  20 1.5 0  0 2 0  0.5 2 0  1 2 0  1.5 2 0  2 2 0  2.5 2 0  3 2 0  3.5 2 0  4 2 0  4.5 2 0  5 2 0  5.5 2 0  6 2 0  6.5 2 0  7 2 0  7.5 2 0  8 2 0  8.5 2 0  9 2 0  9.5 2 0  10 2 0  10.5 2 0  11 2 0  11.5 2 0  12 2 0  12.5 2 0  13 2 0  13.5 2 0  14 2 0  14.5 2 0  15 2 0  15.5 2 0  16 2 0  16.5 2 0  17 2 0  17.5 2 0  18 2 0  18.5 2 0  19 2 0  19.5 2 0  20 2 0  0 2.5 0  0.5 2.5 0  1 2.5 0  1.5 2.5 0  2 2.5 0  2.5 2.5 0  3 2.5 0  3.5 2.5 0  4 2.5 0  4.5 2.5 0  5 2.5 0  5.5 2.5 0  6 2.5 0  6.5 2.5 0  7 2.5 0  7.5 2.5 0  8 2.5 0  8.5 2.5 0  9 2.5 0  9.5 2.5 0  10 2.5 0  10.5 2.5 0  11 2.5 0  11.5 2.5 0  12 2.5 0  12.5 2.5 0  13 2.5 0  13.5 2.5 0  14 2.5 0  14.5 2.5 0  15 2.5 0  15.5 2.5 0  16 2.5 0  16.5 2.5 0  17 2.5 0  17.5 2.5 0  18 2.5 0  18.5 2.5 0  19 2.5 0  19.5 2.5 0  20 2.5 0  0 3 0  0.5 3 0  1 3 0  1.5 3 0  2 3 0  2.5 3 0  3 3 0  3.5 3 0  4 3 0  4.5 3 0  5 3 0  5.5 3 0  6 3 0  6.5 3 0  7 3 0  7.5 3 0  8 3 0  8.5 3 0  9 3 0  9.5 3 0  10 3 0  10.5 3 0  11 3 0  11.5 3 0  12 3 0  12.5 3 0  13 3 0  13.5 3 0  14 3 0  14.5 3 0  15 3 0  15.5 3 0  16 3 0  16.5 3 0  17 3 0  17.5 3 0  18 3 0  18.5 3 0  19 3 0  19.5 3 0  20 3 0  0 3.5 0  0.5 3.5 0  1 3.5 0  1.5 3.5 0  2 3.5 0  2.5 3.5 0  3 3.5 0  3.5 3.5 0  4 3.5 0  4.5 3.5 0  5 3.5 0  5.5 3.5 0  6 3.5 0  6.5 3.5 0  7 3.5 0  7.5 3.5 0  8 3.5 0  8.5 3.5 0  9 3.5 0  9.5 3.5 0  10 3.5 0  10.5 3.5 0  11 3.5 0  11.5 3.5 0  12 3.5 0  12.5 3.5 0  13 3.5 0  13.5 3.5 0  14 3.5 0  14.5 3.5 0  15 3.5 0  15.5 3.5 0  16 3.5 0  16.5 3.5 0  17 3.5 0  17.5 3.5 0  18 3.5 0  18.5 3.5 0  19 3.5 0  19.5 3.5 0  20 3.5 0  0 4 0  0.5 4 0  1 4 0  1.5 4 0  2 4 0  2.5 4 0  3 4 0  3.5 4 0  4 4 0  4.5 4 0  5 4 0  5.5 4 0  6 4 0  6.5 4 0  7 4 0  7.5 4 0  8 4 0  8.5 4 0  9 4 0  9.5 4 0  10 4 0  10.5 4 0  11 4 0  11.5 4 0  12 4 0  12.5 4 0  13 4 0  13.5 4 0  14 4 0  14.5 4 0  15 4 0  15.5 4 0  16 4 0  16.5 4 0  17 4 0  17.5 4 0  18 4 0  18.5 4 0  19 4 0  19.5 4 0  20 4 0  0 4.5 0  0.5 4.5 0  1 4.5 0  1.5 4.5 0  2 4.5 0  2.5 4.5 0  3 4.5 0  3.5 4.5 0  4 4.5 0  4.5 4.5 0  5 4.5 0  5.5 4.5 0  6 4.5 0  6.5 4.5 0  7 4.5 0  7.5 4.5 0  8 4.5 0  8.5 4.5 0  9 4.5 0  9.5 4.5 0  10 4.5 0  10.5 4.5 0  11 4.5 0  11.5 4.5 0  12 4.5 0  12.5 4.5 0  13 4.5 0  13.5 4.5 0  14 4.5 0  14.5 4.5 0  15 4.5 0  15.5 4.5 0  16 4.5 0  16.5 4.5 0  17 4.5 0  17.5 4.5 0  18 4.5 0  18.5 4.5 0  19 4.5 0  19.5 4.5 0  20 4.5 0  0 5 0  0.5 5 0  1 5 0  1.5 5 0  2 5 0  2.5 5 0  3 5 0  3.5 5 0  4 5 0  4.5 5 0  5 5 0  5.5 5 0  6 5 0  6.5 5 0  7 5 0  7.5 5 0  8 5 0  8.5 5 0  9 5 0  9.5 5 0  10 5 0  10.5 5 0  11 5 0  11.5 5 0  12 5 0  12.5 5 0  13 5 0  13.5 5 0  14 5 0  14.5 5 0  15 5 0  15.5 5 0  16 5 0  16.5 5 0  17 5 0  17.5 5 0  18 5 0  18.5 5 0  19 5 0  19.5 5 0  20 5 0  0 5.5 0  0.5 5.5 0  1 5.5 0  1.5 5.5 0  2 5.5 0  2.5 5.5 0  3 5.5 0  3.5 5.5 0  4 5.5 0  4.5 5.5 0  5 5.5 0  5.5 5.5 0  6 5.5 0  6.5 5.5 0  7 5.5 0  7.5 5.5 0  8 5.5 0  8.5 5.5 0  9 5.5 0  9.5 5.5 0  10 5.5 0  10.5 5.5 0  11 5.5 0  11.5 5.5 0  12 5.5 0  12.5 5.5 0  13 5.5 0  13.5 5.5 0  14 5.5 0  14.5 5.5 0  15 5.5 0  15.5 5.5 0  16 5.5 0  16.5 5.5 0  17 5.5 0  17.5 5.5 0  18 5.5 0  18.5 5.5 0  19 5.5 0  19.5 5.5 0  20 5.5 0  0 6 0  0.5 6 0  1 6 0  1.5 6 0  2 6 0  2.5 6 0  3 6 0  3.5 6 0  4 6 0  4.5 6 0  5 6 0  5.5 6 0  6 6 0  6.5 6 0  7 6 0  7.5 6 0  8 6 0  8.5 6 0  9 6 0  9.5 6 0  10 6 0  10.5 6 0  11 6 0  11.5 6 0  12 6 0  12.5 6 0  13 6 0  13.5 6 0  14 6 0  14.5 6 0  15 6 0  15.5 6 0  16 6 0  16.5 6 0  17 6 0  17.5 6 0  18 6 0  18.5 6 0  19 6 0  19.5 6 0  20 6 0  0 6.5 0  0.5 6.5 0  1 6.5 0  1.5 6.5 0  2 6.5 0  2.5 6.5 0  3 6.5 0  3.5 6.5 0  4 6.5 0  4.5 6.5 0  5 6.5 0  5.5 6.5 0  6 6.5 0  6.5 6.5 0  7 6.5 0  7.5 6.5 0  8 6.5 0  8.5 6.5 0  9 6.5 0  9.5 6.5 0  10 6.5 0  10.5 6.5 0  11 6.5 0  11.5 6.5 0  12 6.5 0  12.5 6.5 0  13 6.5 0  13.5 6.5 0  14 6.5 0  14.5 6.5 0  15 6.5 0  15.5 6.5 0  16 6.5 0  16.5 6.5 0  17 6.5 0  17.5 6.5 0  18 6.5 0  18.5 6.5 0  19 6.5 0  19.5 6.5 0  20 6.5 0  0 7 0  0.5 7 0  1 7 0  1.5 7 0  2 7 0  2.5 7 0  3 7 0  3.5 7 0  4 7 0  4.5 7 0  5 7 0  5.5 7 0  6 7 0  6.5 7 0  7 7 0  7.5 7 0  8 7 0  8.5 7 0  9 7 0  9.5 7 0  10 7 0  10.5 7 0  11 7 0  11.5 7 0  12 7 0  12.5 7 0  13 7 0  13.5 7 0  14 7 0  14.5 7 0  15 7 0  15.5 7 0  16 7 0  16.5 7 0  17 7 0  17.5 7 0  18 7 0  18.5 7 0  19 7 0  19.5 7 0  20 7 0  0 7.5 0  0.5 7.5 0  1 7.5 0  1.5 7.5 0  2 7.5 0  2.5 7.5 0  3 7.5 0  3.5 7.5 0  4 7.5 0  4.5 7.5 0  5 7.5 0  5.5 7.5 0  6 7.5 0  6.5 7.5 0  7 7.5 0  7.5 7.5 0  8 7.5 0  8.5 7.5 0  9 7.5 0  9.5 7.5 0  10 7.5 0  10.5 7.5 0  11 7.5 0  11.5 7.5 0  12 7.5 0  12.5 7.5 0  13 7.5 0  13.5 7.5 0  14 7.5 0  14.5 7.5 0  15 7.5 0  15.5 7.5 0  16 7.5 0  16.5 7.5 0  17 7.5 0  17.5 7.5 0  18 7.5 0  18.5 7.5 0  19 7.5 0  19.5 7.5 0  20 7.5 0  0 8 0  0.5 8 0  1 8 0  1.5 8 0  2 8 0  2.5 8 0  3 8 0  3.5 8 0  4 8 0  4.5 8 0  5 8 0  5.5 8 0  6 8 0  6.5 8 0  7 8 0  7.5 8 0  8 8 0  8.5 8 0  9 8 0  9.5 8 0  10 8 0  10.5 8 0  11 8 0  11.5 8 0  12 8 0  12.5 8 0  13 8 0  13.5 8 0  14 8 0  14.5 8 0  15 8 0  15.5 8 0  16 8 0  16.5 8 0  17 8 0  17.5 8 0  18 8 0  18.5 8 0  19 8 0  19.5 8 0  20 8 0  0 8.5 0  0.5 8.5 0  1 8.5 0  1.5 8.5 0  2 8.5 0  2.5 8.5 0  3 8.5 0  3.5 8.5 0  4 8.5 0  4.5 8.5 0  5 8.5 0  5.5 8.5 0  6 8.5 0  6.5 8.5 0  7 8.5 0  7.5 8.5 0  8 8.5 0  8.5 8.5 0  9 8.5 0  9.5 8.5 0  10 8.5 0  10.5 8.5 0  11 8.5 0  11.5 8.5 0  12 8.5 0  12.5 8.5 0  13 8.5 0  13.5 8.5 0  14 8.5 0  14.5 8.5 0  15 8.5 0  15.5 8.5 0  16 8.5 0  16.5 8.5 0  17 8.5 0  17.5 8.5 0  18 8.5 0  18.5 8.5 0  19 8.5 0  19.5 8.5 0  20 8.5 0  0 9 0  0.5 9 0  1 9 0  1.5 9 0  2 9 0  2.5 9 0  3 9 0  3.5 9 0  4 9 0  4.5 9 0  5 9 0  5.5 9 0  6 9 0  6.5 9 0  7 9 0  7.5 9 0  8 9 0  8.5 9 0  9 9 0  9.5 9 0  10 9 0  10.5 9 0  11 9 0  11.5 9 0  12 9 0  12.5 9 0  13 9 0  13.5 9 0  14 9 0  14.5 9 0  15 9 0  15.5 9 0  16 9 0  16.5 9 0  17 9 0  17.5 9 0  18 9 0  18.5 9 0  19 9 0  19.5 9 0  20 9 0  0 9.5 0  0.5 9.5 0  1 9.5 0  1.5 9.5 0  2 9.5 0  2.5 9.5 0  3 9.5 0  3.5 9.5 0  4 9.5 0  4.5 9.5 0  5 9.5 0  5.5 9.5 0  6 9.5 0  6.5 9.5 0  7 9.5 0  7.5 9.5 0  8 9.5 0  8.5 9.5 0  9 9.5 0  9.5 9.5 0  10 9.5 0  10.5 9.5 0  11 9.5 0  11.5 9.5 0  12 9.5 0  12.5 9.5 0  13 9.5 0  13.5 9.5 0  14 9.5 0  14.5 9.5 0  15 9.5 0  15.5 9.5 0  16 9.5 0  16.5 9.5 0  17 9.5 0  17.5 9.5 0  18 9.5 0  18.5 9.5 0  19 9.5 0  19.5 9.5 0  20 9.5 0  0 10 0  0.5 10 0  1 10 0  1.5 10 0  2 10 0  2.5 10 0  3 10 0  3.5 10 0  4 10 0  4.5 10 0  5 10 0  5.5 10 0  6 10 0  6.5 10 0  7 10 0  7.5 10 0  8 10 0  8.5 10 0  9 10 0  9.5 10 0  10 10 0  10.5 10 0  11 10 0  11.5 10 0  12 10 0  12.5 10 0  13 10 0  13.5 10 0  14 10 0  14.5 10 0  15 10 0  15.5 10 0  16 10 0  16.5 10 0  17 10 0  17.5 10 0  18 10 0  18.5 10 0  19 10 0  19.5 10 0  20 10 0  0 10.5 0  0.5 10.5 0  1 10.5 0  1.5 10.5 0  2 10.5 0  2.5 10.5 0  3 10.5 0  3.5 10.5 0  4 10.5 0  4.5 10.5 0  5 10.5 0  5.5 10.5 0  6 10.5 0  6.5 10.5 0  7 10.5 0  7.5 10.5 0  8 10.5 0  8.5 10.5 0  9 10.5 0  9.5 10.5 0  10 10.5 0  10.5 10.5 0  11 10.5 0  11.5 10.5 0  12 10.5 0  12.5 10.5 0  13 10.5 0  13.5 10.5 0  14 10.5 0  14.5 10.5 0  15 10.5 0  15.5 10.5 0  16 10.5 0  16.5 10.5 0  17 10.5 0  17.5 10.5 0  18 10.5 0  18.5 10.5 0  19 10.5 0  19.5 10.5 0  20 10.5 0  0 11 0  0.5 11 0  1 11 0  1.5 11 0  2 11 0  2.5 11 0  3 11 0  3.5 11 0  4 11 0  4.5 11 0  5 11 0  5.5 11 0  6 11 0  6.5 11 0  7 11 0  7.5 11 0  8 11 0  8.5 11 0  9 11 0  9.5 11 0  10 11 0  10.5 11 0  11 11 0  11.5 11 0  12 11 0  12.5 11 0  13 11 0  13.5 11 0  14 11 0  14.5 11 0  15 11 0  15.5 11 0  16 11 0  16.5 11 0  17 11 0  17.5 11 0  18 11 0  18.5 11 0  19 11 0  19.5 11 0  20 11 0  0 11.5 0  0.5 11.5 0  1 11.5 0  1.5 11.5 0  2 11.5 0  2.5 11.5 0  3 11.5 0  3.5 11.5 0  4 11.5 0  4.5 11.5 0  5 11.5 0  5.5 11.5 0  6 11.5 0  6.5 11.5 0  7 11.5 0  7.5 11.5 0  8 11.5 0  8.5 11.5 0  9 11.5 0  9.5 11.5 0  10 11.5 0  10.5 11.5 0  11 11.5 0  11.5 11.5 0  12 11.5 0  12.5 11.5 0  13 11.5 0  13.5 11.5 0  14 11.5 0  14.5 11.5 0  15 11.5 0  15.5 11.5 0  16 11.5 0  16.5 11.5 0  17 11.5 0  17.5 11.5 0  18 11.5 0  18.5 11.5 0  19 11.5 0  19.5 11.5 0  20 11.5 0  0 12 0  0.5 12 0  1 12 0  1.5 12 0  2 12 0  2.5 12 0  3 12 0  3.5 12 0  4 12 0  4.5 12 0  5 12 0  5.5 12 0  6 12 0  6.5 12 0  7 12 0  7.5 12 0  8 12 0  8.5 12 0  9 12 0  9.5 12 0  10 12 0  10.5 12 0  11 12 0  11.5 12 0  12 12 0  12.5 12 0  13 12 0  13.5 12 0  14 12 0  14.5 12 0  
[...]
<PointData  Vectors="f_826-0"> 
<DataArray  type="Float64"  Name="f_826-0"  NumberOfComponents="3" format="ascii">0.0000000000000000e+00 0.0000000000000000e+00 0.0000000000000000e+00  3.1682891508039509e-04 0.0000000000000000e+00 0.0000000000000000e+00  6.2474473573758825e-04 0.0000000000000000e+00 0.0000000000000000e+00  9.0255432110512921e-04 0.0000000000000000e+00 0.0000000000000000e+00  1.1355803904188435e-03 0.0000000000000000e+00 0.0000000000000000e+00  1.3107435543844961e-03 0.0000000000000000e+00 0.0000000000000000e+00  1.4165812779625133e-03 0.0000000000000000e+00 0.0000000000000000e+00  1.4436683443176735e-03 0.0000000000000000e+00 0.0000000000000000e+00  1.3850833305611506e-03 0.0000000000000000e+00 0.0000000000000000e+00  1.2369037974459109e-03 0.0000000000000000e+00 0.0000000000000000e+00  9.9873606101293587e-04 0.0000000000000000e+00 0.0000000000000000e+00  6.7428577198634610e-04 0.0000000000000000e+00 0.0000000000000000e+00  2.7197544946561602e-04 0.0000000000000000e+00 0.0000000000000000e+00  -1.9438444223329781e-04 0.0000000000000000e+00 0.0000000000000000e+00  -7.0486351284459613e-04 0.0000000000000000e+00 0.0000000000000000e+00  -1.2326101273698131e-03 0.0000000000000000e+00 0.0000000000000000e+00  -1.7429708714218370e-03 0.0000000000000000e+00 0.0000000000000000e+00  -2.1925189967966297e-03 0.0000000000000000e+00 0.0000000000000000e+00  -2.5279774864907308e-03 0.0000000000000000e+00 0.0000000000000000e+00  -2.6850189953966184e-03 0.0000000000000000e+00 0.0000000000000000e+00  -2.5869204550349029e-03 0.0000000000000000e+00 0.0000000000000000e+00  -2.1430442270300837e-03 0.0000000000000000e+00 0.0000000000000000e+00  -1.2471098692480758e-03 0.0000000000000000e+00 0.0000000000000000e+00  2.2478982916665960e-04 0.0000000000000000e+00 0.0000000000000000e+00  2.4164888320063549e-03 0.0000000000000000e+00 0.0000000000000000e+00  5.4944429911214744e-03 0.0000000000000000e+00 0.0000000000000000e+00  9.6509251975518007e-03 0.0000000000000000e+00 0.0000000000000000e+00  1.5107860990353961e-02 0.0000000000000000e+00 0.0000000000000000e+00  2.2121494951498535e-02 0.0000000000000000e+00 0.0000000000000000e+00  3.0988149297856791e-02 0.0000000000000000e+00 0.0000000000000000e+00  4.2051439226635637e-02 0.0000000000000000e+00 0.0000000000000000e+00  5.5711462362046674e-02 0.0000000000000000e+00 0.0000000000000000e+00  7.2436711392697251e-02 0.0000000000000000e+00 0.0000000000000000e+00  9.2779820192903512e-02 0.0000000000000000e+00 0.0000000000000000e+00  1.1739883507819576e-01 0.0000000000000000e+00 0.0000000000000000e+00  1.4708667603626172e-01 0.0000000000000000e+00 0.0000000000000000e+00  1.8281316902461434e-01 0.0000000000000000e+00 0.0000000000000000e+00  2.2578730775762132e-01 0.0000000000000000e+00 0.0000000000000000e+00  2.7755464488823461e-01 0.0000000000000000e+00 0.0000000000000000e+00  3.4016587793236897e-01 0.0000000000000000e+00 0.0000000000000000e+00  4.1653339243931797e-01 0.0000000000000000e+00 0.0000000000000000e+00  0.0000000000000000e+00 3.1682891507144891e-04 0.0000000000000000e+00  3.3526567882415797e-04 3.3526567882171304e-04 0.0000000000000000e+00  6.5462179237610037e-04 3.7802954951285302e-04 0.0000000000000000e+00  9.4477223357566876e-04 4.4526073050747542e-04 0.0000000000000000e+00  1.1906972440092793e-03 5.3790312406753115e-04 0.0000000000000000e+00  1.3789680087554817e-03 6.5611243995565690e-04 0.0000000000000000e+00  1.4979783776130334e-03 7.9959994793304696e-04 0.0000000000000000e+00  1.5382408793984438e-03 9.6784127221205053e-04 0.0000000000000000e+00  1.4927991092707413e-03 1.1601499693138734e-03 0.0000000000000000e+00  1.3577035179790579e-03 1.3756974047255022e-03 0.0000000000000000e+00  1.1325338535604151e-03 1.6135139061252198e-03 0.0000000000000000e+00  8.2096661003087630e-04 1.8724832487456483e-03 0.0000000000000000e+00  4.3139103034080733e-04 2.1513344995147824e-03 0.0000000000000000e+00  -2.2420648314897371e-05 2.4486326661115258e-03 0.0000000000000000e+00  -5.2058168464788471e-04 2.7627687765132847e-03 0.0000000000000000e+00  -1.0362897602189053e-03 3.0919497498233164e-03 0.0000000000000000e+00  -1.5349465190528985e-03 3.4341883356284087e-03 0.0000000000000000e+00  -1.9731859326361776e-03 3.7872933789261588e-03 0.0000000000000000e+00  -2.2977971272100466e-03 4.1488606705424426e-03 0.0000000000000000e+00  -2.4445239162440261e-03 4.5162646538475211e-03 0.0000000000000000e+00  -2.3367188051068221e-03 4.8866512708301566e-03 0.0000000000000000e+00  -1.8838233239201012e-03 5.2569322399279462e-03 0.0000000000000000e+00  -9.7963871587593006e-04 5.6237810617544830e-03 0.0000000000000000e+00  4.9965941021729498e-04 5.9836310428519552e-03 0.0000000000000000e+00  2.6978228144643010e-03 6.3326756075971899e-03 0.0000000000000000e+00  5.7812279662366505e-03 6.6668711266781337e-03 0.0000000000000000e+00  9.9420739813558239e-03 6.9819424176669328e-03 0.0000000000000000e+00  1.5402221788640334e-02 7.2733909522782201e-03 0.0000000000000000e+00  2.2417865153962400e-02 7.5365056135844426e-03 0.0000000000000000e+00  3.1285295457183046e-02 7.7663755494355273e-03 0.0000000000000000e+00  4.2348125565194426e-02 7.9579042114752904e-03 0.0000000000000000e+00  5.6006491405223138e-02 8.1058229638033708e-03 0.0000000000000000e+00  7.2728982213357440e-02 8.2047015199743258e-03 0.0000000000000000e+00  9.3068412112167417e-02 8.2489505797023119e-03 0.0000000000000000e+00  1.1768312566457562e-01 8.2328087690568125e-03 0.0000000000000000e+00  1.4736649233609478e-01 8.1503010267360478e-03 0.0000000000000000e+00  1.8308890463594890e-01 7.9951542371057682e-03 0.0000000000000000e+00  2.2605958505276294e-01 7.7606967074013876e-03 0.0000000000000000e+00  2.7782111126530606e-01 7.4400244149118739e-03 0.0000000000000000e+00  3.4039968518905922e-01 7.0277048721359286e-03 0.0000000000000000e+00  4.1654102172197166e-01 6.5258145995240463e-03 0.0000000000000000e+00  0.0000000000000000e+00 6.2474473572798677e-04 0.0000000000000000e+00  3.7802954951382241e-04 6.5462179237595237e-04 0.0000000000000000e+00  7.3751028398639292e-04 7.3751028399014176e-04 0.0000000000000000e+00  1.0670392973075159e-03 8.7207377708562925e-04 0.0000000000000000e+00  1.3523371064509387e-03 1.0580846503315331e-03 0.0000000000000000e+00  1.5801007798509127e-03 1.2951594960817494e-03 0.0000000000000000e+00  1.7386780288877401e-03 1.5826130075743152e-03 0.0000000000000000e+00  1.8185105428466461e-03 1.9194362593781987e-03 0.0000000000000000e+00  1.8125726135921213e-03 2.3043117465484323e-03 0.0000000000000000e+00  1.7168456800079530e-03 2.7356260213766436e-03 0.0000000000000000e+00  1.5308357447058926e-03 3.2114714935634475e-03 0.0000000000000000e+00  1.2581366024475174e-03 3.7296392104468352e-03 0.0000000000000000e+00  9.0704286447959787e-04 4.2876057585012166e-03 0.0000000000000000e+00  4.9121819443173284e-04 4.8825166469848294e-03 0.0000000000000000e+00  3.0425507843938618e-05 5.5111677151463215e-03 0.0000000000000000e+00  -4.4867273331740778e-04 6.1699855938985426e-03 0.0000000000000000e+00  -9.1163439111651757e-04 6.8550079877492519e-03 0.0000000000000000e+00  -1.3152659307661871e-03 7.5618644229830806e-03 0.0000000000000000e+00  -1.6065447442674856e-03 8.2857580645365851e-03 0.0000000000000000e+00  -1.7214177410204224e-03 9.0214491988357369e-03 0.0000000000000000e+00  -1.5834539400903210e-03 9.7632409899001665e-03 0.0000000000000000e+00  -1.1023228795190802e-03 1.0504968130208578e-02 0.0000000000000000e+00  -1.7206282366886728e-04 1.1239989016257650e-02 0.0000000000000000e+00  1.3309076741529610e-03 1.1961182074322421e-02 0.0000000000000000e+00  3.5500952613798033e-03 1.2660946836649449e-02 0.0000000000000000e+00  6.6516336093889426e-03 1.3331210311346401e-02 0.0000000000000000e+00  1.0827486631332426e-02 1.3963439087497337e-02 0.0000000000000000e+00  1.6299293807880498e-02 1.4548657449615086e-02 0.0000000000000000e+00  2.3323048341237197e-02 1.5077471516371519e-02 0.0000000000000000e+00  3.2194870128545675e-02 1.5540099027167582e-02 0.0000000000000000e+00  4.3258238952516827e-02 1.5926403820136017e-02 0.0000000000000000e+00  5.6913206350947175e-02 1.6225933194785911e-02 0.0000000000000000e+00  7.3628336327569821e-02 1.6427955121093914e-02 0.0000000000000000e+00  9.3956484747840338e-02 1.6521490570310264e-02 0.0000000000000000e+00  1.1855610174014412e-01 1.6495334392601015e-02 0.0000000000000000e+00  1.4822068933168611e-01 1.6338057882468681e-02 0.0000000000000000e+00  1.8392067095066536e-01 1.6037991966618762e-02 0.0000000000000000e+00  2.2686483761405951e-01 1.5583198734366022e-02 0.0000000000000000e+00  2.7859398121984813e-01 1.4961338263274808e-02 0.0000000000000000e+00  3.4112978857652848e-01 1.4158351619124486e-02 0.0000000000000000e+00  4.1722271924237092e-01 1.3149212453206814e-02 0.0000000000000000e+00  0.0000000000000000e+00 9.0255432109644833e-04 0.0000000000000000e+00  4.4526073050214321e-04 9.4477223357821761e-04 0.0000000000000000e+00  8.7207377708356341e-04 1.0670392973106942e-03 0.0000000000000000e+00  1.2680303848844204e-03 1.2680303848831250e-03 0.0000000000000000e+00  1.6194612136154248e-03 1.5468925021161293e-03 0.0000000000000000e+00  1.9132620214668738e-03 1.9026961950120264e-03 0.0000000000000000e+00  2.1378280994339333e-03 2.3342000561783136e-03 0.0000000000000000e+00  2.2835776885426480e-03 2.8397954686958261e-03 0.0000000000000000e+00  2.3434235056094765e-03 3.4174827735954953e-03 0.0000000000000000e+00  2.3132603114194798e-03 4.0648532536734514e-03 0.0000000000000000e+00  2.1924860406203565e-03 4.7790711762433942e-03 0.0000000000000000e+00  1.9845649151938763e-03 5.5568534716498239e-03 0.0000000000000000e+00  1.6976390465169337e-03 6.3944463461632767e-03 0.0000000000000000e+00  1.3451950305731310e-03 7.2875991254969805e-03 0.0000000000000000e+00  9.4679274556549282e-04 8.2315360634745097e-03 0.0000000000000000e+00  5.2886467601168910e-04 9.2209269878149487e-03 0.0000000000000000e+00  1.2559559389884015e-04 1.0249857676076456e-02 0.0000000000000000e+00  -2.2010558986181467e-04 1.1311800851190221e-02 0.0000000000000000e+00  -4.5552738922200977e-04 1.2399588689958808e-02 0.0000000000000000e+00  -5.1695289191895080e-04 1.3505387754674390e-02 0.0000000000000000e+00  -3.2831017110378864e-04 1.4620677282500752e-02 0.0000000000000000e+00  2.0035228546895896e-04 1.5736231792455271e-02 0.0000000000000000e+00  1.1746012101242064e-03 1.6842108986862628e-02 0.0000000000000000e+00  2.7176117588969440e-03 1.7927643924079976e-02 0.0000000000000000e+00  4.9724787509009957e-03 1.8981450411410434e-02 0.0000000000000000e+00  8.1049252777248160e-03 1.9991430498215772e-02 0.0000000000000000e+00  1.2306513786173994e-02 2.0944792820592167e-02 0.0000000000000000e+00  1.7798500371826453e-02 2.1828080335411601e-02 0.0000000000000000e+00  2.4836522996639330e-02 2.2627207646249686e-02 0.0000000000000000e+00  3.3716385555743383e-02 2.3327507613529509e-02 0.0000000000000000e+00  4.4781303004862397e-02 2.3913786177637210e-02 0.0000000000000000e+00  5.8431125565433721e-02 2.4370383189048814e-02 0.0000000000000000e+00  7.5134291177100118e-02 2.4681235351023973e-02 0.0000000000000000e+00  9.5443613958737780e-02 2.4829934817088020e-02 0.0000000000000000e+00  1.2001758899319283e-01 2.4799772749965653e-02 0.0000000000000000e+00  1.4964983876051499e-01 2.4573748261444161e-02 0.0000000000000000e+00  1.8531094633159426e-01 2.4134496806327812e-02 0.0000000000000000e+00  2.2820981212313993e-01 2.3463997175310617e-02 0.0000000000000000e+00  2.7988703324082626e-01 2.2542583436178969e-02 0.0000000000000000e+00  3.4236304513239496e-01 2.1345821008976862e-02 0.0000000000000000e+00  4.1838442654280344e-01 1.9835960905902530e-02 0.0000000000000000e+00  0.0000000000000000e+00 1.1355803904203674e-03 0.0000000000000000e+00  5.3790312406232828e-04 1.1906972440102693e-03 0.0000000000000000e+00  1.0580846503295811e-03 1.3523371064484676e-03 0.0000000000000000e+00  1.5468925021149516e-03 1.6194612136159548e-03 0.0000000000000000e+00  1.9908630090864385e-03 1.9908630090869589e-03 0.0000000000000000e+00  2.3770446400074468e-03 2.4651628073172798e-03 0.0000000000000000e+00  2.6938766324811412e-03 3.0406069708227399e-03 0.0000000000000000e+00  2.9317564208208762e-03 3.7149941089506980e-03 0.0000000000000000e+00  3.0835318171862774e-03 4.4856358622519122e-03 0.0000000000000000e+00  3.1449960166834629e-03 5.3493251888404878e-03 0.0000000000000000e+00  3.1154111047882807e-03 6.3023046074462130e-03 0.0000000000000000e+00  2.9980712774038019e-03 7.3402325386782629e-03 0.0000000000000000e+00  2.8009134875424742e-03 8.4581473960659102e-03 0.0000000000000000e+00  2.5371827069207140e-03 9.6504295958927660e-03 0.0000000000000000e+00  2.2261594413586676e-03 1.0910761958510868e-02 0.0000000000000000e+00  1.8939581062883759e-03 1.2232089197480651e-02 0.0000000000000000e+00  1.5744062870381719e-03 1.3606577357669861e-02 0.0000000000000000e+00  1.3100168408116508e-03 1.5025574185741956e-02 0.0000000000000000e+00  1.1530673708371735e-03 1.6479571511424259e-02 0.0000000000000000e+00  1.1668050052309818e-03 1.7958170796496108e-02 0.0000000000000000e+00  1.4267988986217206e-03 1.9450053074473984e-02 0.0000000000000000e+00  2.0224687930748011e-03 2.0942954557508209e-02 0.0000000000000000e+00  3.0588258071730079e-03 2.2423649222054462e-02 0.0000000000000000e+00  4.6584720395197819e-03 2.3877939694433418e-02 0.0000000000000000e+00  6.9639195245902851e-03 2.5290657728026640e-02 0.0000000000000000e+00  1.0140307930568852e-02 2.6645675480232056e-02 0.0000000000000000e+00  1.4378626133770443e-02 2.7925928634237554e-02 0.0000000000000000e+00  1.9899578401844413e-02 2.9113452134273202e-02 0.0000000000000000e+00  2.6958285839531068e-02 3.0189428860902638e-02 0.0000000000000000e+00  3.5850084879789010e-02 3.1134250886607949e-02 0.0000000000000000e+00  4.6917787759330358e-02 3.1927591894289398e-02 0.0000000000000000e+00  6.0560922512736773e-02 3.2548487695900789e-02 0.0000000000000000e+00  7.7247700818935713e-02 3.2975419137443382e-02 0.0000000000000000e+00  9.7530820002627694e-02 3.3186387087741402e-02 0.0000000000000000e+00  1.2206877673911508e-01 3.3158960313425148e-02 0.0000000000000000e+00  1.5165531124743326e-01 3.2870257423207656e-02 0.0000000000000000e+00  1.8726120698545684e-01 3.2296776823305867e-02 0.0000000000000000e+00  2.3009551542113965e-01 3.1413875265843001e-02 0.0000000000000000e+00  2.8169851360702203e-01 3.0194458285971733e-02 0.0000000000000000e+00  3.4408883468342671e-01 2.8606124969825321e-02 0.0000000000000000e+00  4.2000864080581918e-01 2.6606264403568735e-02 0.0000000000000000e+00  0.0000000000000000e+00 1.3107435543917251e-03 0.0000000000000000e+00  6.5611243995296136e-04 1.3789680087538793e-03 0.0000000000000000e+00  1.2951594960806153e-03 1.5801007798503263e-03 0.0000000000000000e+00  1.9026961950133639e-03 1.9132620214639315e-03 0.0000000000000000e+00  2.4651628073194742e-03 2.3770446400021863e-03 0.0000000000000000e+00  2.9696896580695530e-03 2.9696896580656000e-03 0.0000000000000000e+00  3.4047423870231571e-03 3.6889759892764222e-03 0.0000000000000000e+00  3.7606877479983694e-03 4.5321432031506679e-03 0.0000000000000000e+00  4.0302954069655469e-03 5.4958420350078160e-03 0.0000000000000000e+00  4.2092370843722646e-03 6.5760922336004389e-03 0.0000000000000000e+00  4.2966104372691759e-03 7.7682402041988141e-03 0.0000000000000000e+00  4.2955009796497605e-03 9.0669142472812169e-03 0.0000000000000000e+00  4.2135908479948459e-03 1.0465977046228606e-02 0.0000000000000000e+00  4.0638221361768466e-03 1.1958475742367986e-02 0.0000000000000000e+00  3.8651227467670179e-03 1.3536590240966338e-02 0.0000000000000000e+00  3.6432035827185416e-03 1.5191580583088041e-02 0.0000000000000000e+00  3.4314372821879352e-03 1.6913734375385254e-02 0.0000000000000000e+00  3.2718306103309809e-03 1.8692315412947441e-02 0.0000000000000000e+00  3.2161051828388824e-03 2.0515514761900076e-02 0.0000000000000000e+00  3.3269045891879726e-03 2.2370405686663014e-02 0.0000000000000000e+00  3.6791504627832912e-03 2.4242903910421651e-02 0.0000000000000000e+00  4.3615759570618346e-03 2.6117734780820294e-02 0.0000000000000000e+00  5.4784729118767450e-03 2.7978408971373672e-02 0.0000000000000000e+00  7.1516994002971549e-03 2.9807208371184859e-02 0.0000000000000000e+00  9.5230082815200949e-03 3.1585183787964356e-02 0.0000000000000000e+00  1.2756776212126630e-02 3.3292165990881396e-02 0.0000000000000000e+00  1.7043238275271533e-02 3.4906791419404566e-02 0.0000000000000000e+00  2.2602368930045105e-02 3.6406543537613398e-02 0.0000000000000000e+00  2.9688599824434177e-02 3.7767810249175075e-02 0.0000000000000000e+00  3.8596636026702075e-02 3.8965956897114636e-02 0.0000000000000000e+00  4.9668735210470549e-02 3.9975412969552968e-02 0.0000000000000000e+00  6.3303966641350046e-02 4.0769768390808307e-02 0.0000000000000000e+00  7.9970197098865603e-02 4.1321871568015811e-02 0.0000000000000000e+00  1.0021990773737310e-01 4.1603914882300294e-02 0.0000000000000000e+00  1.2471151443488603e-01 4.1587481273774020e-02 0.0000000000000000e+00  1.5423879837967155e-01 4.1243502171307365e-02 0.0000000000000000e+00  1.8977264249750167e-01 4.0542031712787321e-02 0.0000000000000000e+00  2.3252207981268250e-01 3.9451662074210921e-02 0.0000000000000000e+00  2.8402687633807905e-01 3.7938296764209123e-02 0.0000000000000000e+00  3.4630421840756126e-01 3.5962959908772761e-02 0.0000000000000000e+00  4.2209469559994550e-01 3.3478607272053644e-02 0.0000000000000000e+00  0.0000000000000000e+00 1.4165812779637430e-03 0.0000000000000000e+00  7.9959994793501663e-04 1.4979783776112789e-03 0.0000000000000000e+00  1.5826130075732479e-03 1.7386780288899555e-03 0.0000000000000000e+00  2.3342000561732391e-03 2.1378280994271254e-03 0.0000000000000000e+00  3.0406069708170456e-03 2.6938766324797821e-03 0.0000000000000000e+00  3.6889759892702175e-03 3.4047423870206825e-03 0.0000000000000000e+00  4.2677779870339541e-03 4.2677779870363766e-03 0.0000000000000000e+00  4.7673383179734734e-03 5.2797013219583770e-03 0.0000000000000000e+00  5.1803357186663464e-03 6.4365394951377969e-03 0.0000000000000000e+00  5.5023013938529436e-03 7.7335774594608619e-03 0.0000000000000000e+00  5.7321413820487308e-03 9.1653056896540928e-03 0.0000000000000000e+00  5.8726959271815631e-03 1.0725364790854786e-02 0.0000000000000000e+00  5.9313453494310017e-03 1.2406486674969550e-02 0.0000000000000000e+00  5.9206706107462308e-03 1.4200432698603294e-02 0.0000000000000000e+00  5.8591768287310358e-03 1.6097929531196306e-02 0.0000000000000000e+00  5.7720887826221545e-03 1.8088603751522509e-02 0.0000000000000000e+00  5.6922287948864229e-03 2.0160916348309604e-02 0.0000000000000000e+00  5.6609892670356678e-03 2.2302098460150306e-02 0.0000000000000000e+00  5.7294147035810618e-03 2.4498089839989613e-02 0.0000000000000000e+00  5.9594114487476254e-03 2.6733481671181152e-02 0.0000000000000000e+00  6.4251078371593360e-03 2.8991465491120569e-02 0.0000000000000000e+00  7.2143933673826646e-03 3.1253790086481985e-02 0.0000000000000000e+00  8.4306733241290045e-03 3.3500728304023453e-02 0.0000000000000000e+00  1.0194885667397867e-02 3.5711055757410022e-02 0.0000000000000000e+00  1.2647840920527851e-02 3.7862043387553307e-02 0.0000000000000000e+00  1.5952964581769296e-02 3.9929465724557127e-02 0.0000000000000000e+00  2.0299547240404895e-02 4.1887626467174262e-02 0.0000000000000000e+00  2.5906643044680953e-02 4.3709402583656659e-02 0.0000000000000000e+00  3.3027806897388046e-02 4.5366307459853983e-02 0.0000000000000000e+00  4.1956931598568004e-02 4.6828572538232825e-02 0.0000000000000000e+00  5.3035548878640884e-02 4.8065245177414624e-02 0.0000000000000000e+00  6.6662110156666565e-02 4.9044297724621121e-02 0.0000000000000000e+00  8.3303992383187211e-02 4.9732738339028207e-02 0.0000000000000000e+00  1.0351332968499077e-01 5.0096706667114334e-02 0.0000000000000000e+00  1.2794833695741581e-01 5.0101524805586585e-02 0.0000000000000000e+00  1.5740271968762676e-01 4.9711652441242690e-02 0.0000000000000000e+00  1.9284734385518026e-01 4.8890460000726096e-02 0.0000000000000000e+00  2.3549114698321805e-01 4.7599682832808098e-0