<?xml version="1.0"?>
<VTKFile type="UnstructuredGrid"  version="0.1"  >
<UnstructuredGrid>
<Piece  NumberOfPoints="1681" NumberOfCells="3200">
<Points>
<DataArray  type="Float64"  NumberOfComponents="3"  format="ascii">0 0 0  0.5 0 0  1 0 0  1.5 0 0  2 0 0  2.5 0 0  3 0 0  3.5 0 0  4 0 0  4.5 0 0  5 0 0  5.5 0 0  6 0 0  6.5 0 0  7 0 0  7.5 0 0  8 0 0  8.5 0 0  9 0 0  9.5 0 0  10 0 0  10.5 0 0  11 0 0  11.5 0 0  12 0 0  12.5 0 0  13 0 0  13.5 0 0  14 0 0  14.5 0 0  15 0 0  15.5 0 0  16 0 0  16.5 0 0  17 0 0  17.5 0 0  18 0 0  18.5 0 0  19 0 0  19.5 0 0  20 0 0  0 0.5 0  0.5 0.5 0  1 0.5 0  1.5 0.5 0  2 0.5 0  2.5 0.5 0  3 0.5 0  3.5 0.5 0  4 0.5 0  4.5 0.5 0  5 0.5 0  5.5 0.5 0  6 0.5 0  6.5 0.5 0  7 0.5 0  7.5 0.5 0  8 0.5 0  8.5 0.5 0  9 0.5 0  9.5 0.5 0  10 0.5 0  10.5 0.5 0  11 0.5 0  11.5 0.5 0  12 0.5 0  12.5 0.5 0  13 0.5 0  13.5 0.5 0  14 0.5 0  14.5 0.5 0  15 0.5 0  15.5 0.5 0  16 0.5 0  16.5 0.5 0  17 0.5 0  17.5 0.5 0  18 0.5 0  18.5 0.5 0  19 0.5 0  19.5 0.5 0  20 0.5 0  0 1 0  0.5 1 0  1 1 0  1.5 1 0  2 1 0  2.5 1 0  3 1 0  3.5 1 0  4 1 0  4.5 1 0  5 1 0  5.5 1 0  6 1 0  6.5 1 0  7 1 0  7.5 1 0  8 1 0  8.5 1 0  9 1 0  9.5 1 0  10 1 0  10.5 1 0  11 1 0  11.5 1 0  12 1 0  12.5 1 0  13 1 0  13.5 1 0  14 1 0  14.5 1 0  15 1 0  15.5 1 0  16 1 0  16.5 1 0  17 1 0  17.5 1 0  18 1 0  18.5 1 0  19 1 0  19.5 1 0  20 1 0  0 1.5 0  0.5 1.5 0  1 1.5 0  1.5 1.5 0  2 1.5 0  2.5 1.5 0  3 1.5 0  3.5 1.5 0  4 1.5 0  4.5 1.5 0  5 1.5 0  5.5 1.5 0  6 1.5 0  6.5 1.5 0  7 1.5 0  7.5 1.5 0  8 1.5 0  8.5 1.5 0  9 1.5 0  9.5 1.5 0  10 1.5 0  10.5 1.5 0  11 1.5 0  11.5 1.5 0  12 1.5 0  12.5 1.5 0  13 1.5 0  13.5 1.5 0  14 1.5 0  14.5 1.5 0  15 1.5 0  15.5 1.5 0  16 1.5 0  16.5 1.5 0  17 1.5 0  17.5 1.5 0  18 1.5 0  18.5 1.5 0  19 1.5 0  19.5 1.5 0  20 1.5 0  0 2 0  0.5 2 0  1 2 0  1.5 2 0  2 2 0  2.5 2 0  3 2 0  3.5 2 0  4 2 0  4.5 2 0  5 2 0  5.5 2 0  6 2 0  6.5 2 0  7 2 0  7.5 2 0  8 2 0  8.5 2 0  9 2 0  9.5 2 0  10 2 0  10.5 2 0  11 2 0  11.5 2 0  12 2 0  12.5 2 0  13 2 0  13.5 2 0  14 2 0  14.5 2 0  15 2 0  15.5 2 0  16 2 0  16.5 2 0  17 2 0  17.5 2 0  18 2 0  18.5 2 0  19 2 0  19.5 2 0  20 2 0  0 2.5 0  0.5 2.5 0  1 2.5 0  1.5 2.5 0  2 2.5 0  2.5 2.5 0  3 2.5 0  3.5 2.5 0  4 2.5 0  4.5 2.5 0  5 2.5 0  5.5 2.5 0  6 2.5 0  6.5 2.5 0  7 2.5 0  7.5 2.5 0  8 2.5 0  8.5 2.5 0  9 2.5 0  9.5 2.5 0  10 2.5 0  10.5 2.5 0  11 2.5 0  11.5 2.5 0  12 2.5 0  12.5 2.5 0  13 2.5 0  13.5 2.5 0  14 2.5 0  14.5 2.5 0  15 2.5 0  15.5 2.5 0  16 2.5 0  16.5 2.5 0  17 2.5 0  17.5 2.5 0  18 2.5 0  18.5 2.5 0  19 2.5 0  19.5 2.5 0  20 2.5 0  0 3 0  0.5 3 0  1 3 0  1.5 3 0  2 3 0  2.5 3 0  3 3 0  3.5 3 0  4 3 0  4.5 3 0  5 3 0  5.5 3 0  6 3 0  6.5 3 0  7 3 0  7.5 3 0  8 3 0  8.5 3 0  9 3 0  9.5 3 0  10 3 0  10.5 3 0  11 3 0  11.5 3 0  12 3 0  12.5 3 0  13 3 0  13.5 3 0  14 3 0  14.5 3 0  15 3 0  15.5 3 0  16 3 0  16.5 3 0  17 3 0  17.5 3 0  18 3 0  18.5 3 0  19 3 0  19.5 3 0  20 3 0  0 3.5 0  0.5 3.5 0  1 3.5 0  1.5 3.5 0  2 3.5 0  2.5 3.5 0  3 3.5 0  3.5 3.5 0  4 3.5 0  4.5 3.5 0  5 3.5 0  5.5 3.5 0  6 3.5 0  6.5 3.5 0  7 3.5 0  7.5 3.5 0  8 3.5 0  8.5 3.5 0  9 3.5 0  9.5 3.5 0  10 3.5 0  10.5 3.5 0  11 3.5 0  11.5 3.5 0  12 3.5 0  12.5 3.5 0  13 3.5 0  13.5 3.5 0  14 3.5 0  14.5 3.5 0  15 3.5 0  15.5 3.5 0  16 3.5 0  16.5 3.5 0  17 3.5 0  17.5 3.5 0  18 3.5 0  18.5 3.5 0  19 3.5 0  19.5 3.5 0  20 3.5 0  0 4 0  0.5 4 0  1 4 0  1.5 4 0  2 4 0  2.5 4 0  3 4 0  3.5 4 0  4 4 0  4.5 4 0  5 4 0  5.5 4 0  6 4 0  6.5 4 0  7 4 0  7.5 4 0  8 4 0  8.5 4 0  9 4 0  9.5 4 0  10 4 0  10.5 4 0  11 4 0  11.5 4 0  12 4 0  12.5 4 0  13 4 0  13.5 4 0  14 4 0  14.5 4 0  15 4 0  15.5 4 0  16 4 0  16.5 4 0  17 4 0  17.5 4 0  18 4 0  18.5 4 0  19 4 0  19.5 4 0  20 4 0  0 4.5 0  0.5 4.5 0  1 4.5 0  1.5 4.5 0  2 4.5 0  2.5 4.5 0  3 4.5 0  3.5 4.5 0  4 4.5 0  4.5 4.5 0  5 4.5 0  5.5 4.5 0  6 4.5 0  6.5 4.5 0  7 4.5 0  7.5 4.5 0  8 4.5 0  8.5 4.5 0  9 4.5 0  9.5 4.5 0  10 4.5 0  10.5 4.5 0  11 4.5 0  11.5 4.5 0  12 4.5 0  12.5 4.5 0  13 4.5 0  13.5 4.5 0  14 4.5 0  14.5 4.5 0  15 4.5 0  15.5 4.5 0  16 4.5 0  16.5 4.5 0  17 4.5 0  17.5 4.5 0  18 4.5 0  18.5 4.5 0  19 4.5 0  19.5 4.5 0  20 4.5 0  0 5 0  0.5 5 0  1 5 0  1.5 5 0  2 5 0  2.5 5 0  3 5 0  3.5 5 0  4 5 0  4.5 5 0  5 5 0  5.5 5 0  6 5 0  6.5 5 0  7 5 0  7.5 5 0  8 5 0  8.5 5 0  9 5 0  9.5 5 0  10 5 0  10.5 5 0  11 5 0  11.5 5 0  12 5 0  12.5 5 0  13 5 0  13.5 5 0  14 5 0  14.5 5 0  15 5 0  15.5 5 0  16 5 0  16.5 5 0  17 5 0  17.5 5 0  18 5 0  18.5 5 0  19 5 0  19.5 5 0  20 5 0  0 5.5 0  0.5 5.5 0  1 5.5 0  1.5 5.5 0  2 5.5 0  2.5 5.5 0  3 5.5 0  3.5 5.5 0  4 5.5 0  4.5 5.5 0  5 5.5 0  5.5 5.5 0  6 5.5 0  6.5 5.5 0  7 5.5 0  7.5 5.5 0  8 5.5 0  8.5 5.5 0  9 5.5 0  9.5 5.5 0  10 5.5 0  10.5 5.5 0  11 5.5 0  11.5 5.5 0  12 5.5 0  12.5 5.5 0  13 5.5 0  13.5 5.5 0  14 5.5 0  14.5 5.5 0  15 5.5 0  15.5 5.5 0  16 5.5 0  16.5 5.5 0  17 5.5 0  17.5 5.5 0  18 5.5 0  18.5 5.5 0  19 5.5 0  19.5 5.5 0  20 5.5 0  0 6 0  0.5 6 0  1 6 0  1.5 6 0  2 6 0  2.5 6 0  3 6 0  3.5 6 0  4 6 0  4.5 6 0  5 6 0  5.5 6 0  6 6 0  6.5 6 0  7 6 0  7.5 6 0  8 6 0  8.5 6 0  9 6 0  9.5 6 0  10 6 0  10.5 6 0  11 6 0  11.5 6 0  12 6 0  12.5 6 0  13 6 0  13.5 6 0  14 6 0  14.5 6 0  15 6 0  15.5 6 0  16 6 0  16.5 6 0  17 6 0  17.5 6 0  18 6 0  18.5 6 0  19 6 0  19.5 6 0  20 6 0  0 6.5 0  0.5 6.5 0  1 6.5 0  1.5 6.5 0  2 6.5 0  2.5 6.5 0  3 6.5 0  3.5 6.5 0  4 6.5 0  4.5 6.5 0  5 6.5 0  5.5 6.5 0  6 6.5 0  6.5 6.5 0  7 6.5 0  7.5 6.5 0  8 6.5 0  8.5 6.5 0  9 6.5 0  9.5 6.5 0  10 6.5 0  10.5 6.5 0  11 6.5 0  11.5 6.5 0  12 6.5 0  12.5 6.5 0  13 6.5 0  13.5 6.5 0  14 6.5 0  14.5 6.5 0  15 6.5 0  15.5 6.5 0  16 6.5 0  16.5 6.5 0  17 6.5 0  17.5 6.5 0  18 6.5 0  18.5 6.5 0  19 6.5 0  19.5 6.5 0  20 6.5 0  0 7 0  0.5 7 0  1 7 0  1.5 7 0  2 7 0  2.5 7 0  3 7 0  3.5 7 0  4 7 0  4.5 7 0  5 7 0  5.5 7 0  6 7 0  6.5 7 0  7 7 0  7.5 7 0  8 7 0  8.5 7 0  9 7 0  9.5 7 0  10 7 0  10.5 7 0  11 7 0  11.5 7 0  12 7 0  12.5 7 0  13 7 0  13.5 7 0  14 7 0  14.5 7 0  15 7 0  15.5 7 0  16 7 0  16.5 7 0  17 7 0  17.5 7 0  18 7 0  18.5 7 0  19 7 0  19.5 7 0  20 7 0  0 7.5 0  0.5 7.5 0  1 7.5 0  1.5 7.5 0  2 7.5 0  2.5 7.5 0  3 7.5 0  3.5 7.5 0  4 7.5 0  4.5 7.5 0  5 7.5 0  5.5 7.5 0  6 7.5 0  6.5 7.5 0  7 7.5 0  7.5 7.5 0  8 7.5 0  8.5 7.5 0  9 7.5 0  9.5 7.5 0  10 7.5 0  10.5 7.5 0  11 7.5 0  11.5 7.5 0  12 7.5 0  12.5 7.5 0  13 7.5 0  13.5 7.5 0  14 7.5 0  14.5 7.5 0  15 7.5 0  15.5 7.5 0  16 7.5 0  16.5 7.5 0  17 7.5 0  17.5 7.5 0  18 7.5 0  18.5 7.5 0  19 7.5 0  19.5 7.5 0  20 7.5 0  0 8 0  0.5 8 0  1 8 0  1.5 8 0  2 8 0  2.5 8 0  3 8 0  3.5 8 0  4 8 0  4.5 8 0  5 8 0  5.5 8 0  6 8 0  6.5 8 0  7 8 0  7.5 8 0  8 8 0  8.5 8 0  9 8 0  9.5 8 0  10 8 0  10.5 8 0  11 8 0  11.5 8 0  12 8 0  12.5 8 0  13 8 0  13.5 8 0  14 8 0  14.5 8 0  15 8 0  15.5 8 0  16 8 0  16.5 8 0  17 8 0  17.5 8 0  18 8 0  18.5 8 0  19 8 0  19.5 8 0  20 8 0  0 8.5 0  0.5 8.5 0  1 8.5 0  1.5 8.5 0  2 8.5 0  2.5 8.5 0  3 8.5 0  3.5 8.5 0  4 8.5 0  4.5 8.5 0  5 8.5 0  5.5 8.5 0  6 8.5 0  6.5 8.5 0  7 8.5 0  7.5 8.5 0  8 8.5 0  8.5 8.5 0  9 8.5 0  9.5 8.5 0  10 8.5 0  10.5 8.5 0  11 8.5 0  11.5 8.5 0  12 8.5 0  12.5 8.5 0  13 8.5 0  13.5 8.5 0  14 8.5 0  14.5 8.5 0  15 8.5 0  15.5 8.5 0  16 8.5 0  16.5 8.5 0  17 8.5 0  17.5 8.5 0  18 8.5 0  18.5 8.5 0  19 8.5 0  19.5 8.5 0  20 8.5 0  0 9 0  0.5 9 0  1 9 0  1.5 9 0  2 9 0  2.5 9 0  3 9 0  3.5 9 0  4 9 0  4.5 9 0  5 9 0  5.5 9 0  6 9 0  6.5 9 0  7 9 0  7.5 9 0  8 9 0  8.5 9 0  9 9 0  9.5 9 0  10 9 0  10.5 9 0  11 9 0  11.5 9 0  12 9 0  12.5 9 0  13 9 0  13.5 9 0  14 9 0  14.5 9 0  15 9 0  15.5 9 0  16 9 0  16.5 9 0  17 9 0  17.5 9 0  18 9 0  18.5 9 0  19 9 0  19.5 9 0  20 9 0  0 9.5 0  0.5 9.5 0  1 9.5 0  1.5 9.5 0  2 9.5 0  2.5 9.5 0  3 9.5 0  3.5 9.5 0  4 9.5 0  4.5 9.5 0  5 9.5 0  5.5 9.5 0  6 9.5 0  6.5 9.5 0  7 9.5 0  7.5 9.5 0  8 9.5 0  8.5 9.5 0  9 9.5 0  9.5 9.5 0  10 9.5 0  10.5 9.5 0  11 9.5 0  11.5 9.5 0  12 9.5 0  12.5 9.5 0  13 9.5 0  13.5 9.5 0  14 9.5 0  14.5 9.5 0  15 9.5 0  15.5 9.5 0  16 9.5 0  16.5 9.5 0  17 9.5 0  17.5 9.5 0  18 9.5 0  18.5 9.5 0  19 9.5 0  19.5 9.5 0  20 9.5 0  0 10 0  0.5 10 0  1 10 0  1.5 10 0  2 10 0  2.5 10 0  3 10 0  3.5 10 0  4 10 0  4.5 10 0  5 10 0  5.5 10 0  6 10 0  6.5 10 0  7 10 0  7.5 10 0  8 10 0  8.5 10 0  9 10 0  9.5 10 0  10 10 0  10.5 10 0  11 10 0  11.5 10 0  12 10 0  12.5 10 0  13 10 0  13.5 10 0  14 10 0  14.5 10 0  15 10 0  15.5 10 0  16 10 0  16.5 10 0  17 10 0  17.5 10 0  18 10 0  18.5 10 0  19 10 0  19.5 10 0  20 10 0  0 10.5 0  0.5 10.5 0  1 10.5 0  1.5 10.5 0  2 10.5 0  2.5 10.5 0  3 10.5 0  3.5 10.5 0  4 10.5 0  4.5 10.5 0  5 10.5 0  5.5 10.5 0  6 10.5 0  6.5 10.5 0  7 10.5 0  7.5 10.5 0  8 10.5 0  8.5 10.5 0  9 10.5 0  9.5 10.5 0  10 10.5 0  10.5 10.5 0  11 10.5 0  11.5 10.5 0  12 10.5 0  12.5 10.5 0  13 10.5 0  13.5 10.5 0  14 10.5 0  14.5 10.5 0  15 10.5 0  15.5 10.5 0  16 10.5 0  16.5 10.5 0  17 10.5 0  17.5 10.5 0  18 10.5 0  18.5 10.5 0  19 10.5 0  19.5 10.5 0  20 10.5 0  0 11 0  0.5 11 0  1 11 0  1.5 11 0  2 11 0  2.5 11 0  3 11 0  3.5 11 0  4 11 0  4.5 11 0  5 11 0  5.5 11 0  6 11 0  6.5 11 0  7 11 0  7.5 11 0  8 11 0  8.5 11 0  9 11 0  9.5 11 0  10 11 0  10.5 11 0  11 11 0  11.5 11 0  12 11 0  12.5 11 0  13 11 0  13.5 11 0  14 11 0  14.5 11 0  15 11 0  15.5 11 0  16 11 0  16.5 11 0  17 11 0  17.5 11 0  18 11 0  18.5 11 0  19 11 0  19.5 11 0  20 11 0  0 11.5 0  0.5 11.5 0  1 11.5 0  1.5 11.5 0  2 11.5 0  2.5 11.5 0  3 11.5 0  3.5 11.5 0  4 11.5 0  4.5 11.5 0  5 11.5 0  5.5 11.5 0  6 11.5 0  6.5 11.5 0  7 11.5 0  7.5 11.5 0  8 11.5 0  8.5 11.5 0  9 11.5 0  9.5 11.5 0  10 11.5 0  10.5 11.5 0  11 11.5 0  11.5 11.5 0  12 11.5 0  12.5 11.5 0  13 11.5 0  13.5 11.5 0  14 11.5 0  14.5 11.5 0  15 11.5 0  15.5 11.5 0  16 11.5 0  16.5 11.5 0  17 11.5 0  17.5 11.5 0  18 11.5 0  18.5 11.5 0  19 11.5 0  19.5 11.5 0  20 11.5 0  0 12 0  0.5 12 0  1 12 0  1.5 12 0  2 12 0  2.5 12 0  3 12 0  3.5 12 0  4 12 0  4.5 12 0  5 12 0  5.5 12 0  6 12 0  6.5 12 0  7 12 0  7.5 12 0  8 12 0  8.5 12 0  9 12 0  9.5 12 0  10 12 0  10.5 12 0  11 12 0  11.5 12 0  12 12 0  12.5 12 0  13 12 0  13.5 12 0  14 12 0  14.5 12 0  
[...]
<PointData  Vectors="f_2975-0"> 
<DataArray  type="Float64"  Name="f_2975-0"  NumberOfComponents="3" format="ascii">0.0000000000000000e+00 0.0000000000000000e+00 0.0000000000000000e+00  -6.2157785193350731e-07 0.0000000000000000e+00 0.0000000000000000e+00  -2.8043155195706157e-06 0.0000000000000000e+00 0.0000000000000000e+00  -8.7406836488655364e-06 0.0000000000000000e+00 0.0000000000000000e+00  -2.0301356758400028e-05 0.0000000000000000e+00 0.0000000000000000e+00  -3.9313733519835951e-05 0.0000000000000000e+00 0.0000000000000000e+00  -6.7572146166746522e-05 0.0000000000000000e+00 0.0000000000000000e+00  -1.0682792017527789e-04 0.0000000000000000e+00 0.0000000000000000e+00  -1.5877785151226763e-04 0.0000000000000000e+00 0.0000000000000000e+00  -2.2505164454655058e-04 0.0000000000000000e+00 0.0000000000000000e+00  -3.0719774694173908e-04 0.0000000000000000e+00 0.0000000000000000e+00  -4.0666695462914188e-04 0.0000000000000000e+00 0.0000000000000000e+00  -5.2479300788376077e-04 0.0000000000000000e+00 0.0000000000000000e+00  -6.6276911886843193e-04 0.0000000000000000e+00 0.0000000000000000e+00  -8.2161894853834084e-04 0.0000000000000000e+00 0.0000000000000000e+00  -1.0021599472163809e-03 0.0000000000000000e+00 0.0000000000000000e+00  -1.2049561277482164e-03 0.0000000000000000e+00 0.0000000000000000e+00  -1.4302561751454532e-03 0.0000000000000000e+00 0.0000000000000000e+00  -1.6779112168250519e-03 0.0000000000000000e+00 0.0000000000000000e+00  -1.9472644721403531e-03 0.0000000000000000e+00 0.0000000000000000e+00  -2.2370022469509255e-03 0.0000000000000000e+00 0.0000000000000000e+00  -2.5449522149657232e-03 0.0000000000000000e+00 0.0000000000000000e+00  -2.8678105244145102e-03 0.0000000000000000e+00 0.0000000000000000e+00  -3.2007739175879441e-03 0.0000000000000000e+00 0.0000000000000000e+00  -3.5370467564413322e-03 0.0000000000000000e+00 0.0000000000000000e+00  -3.8671857271776189e-03 0.0000000000000000e+00 0.0000000000000000e+00  -4.1782373198457814e-03 0.0000000000000000e+00 0.0000000000000000e+00  -4.4526153946314959e-03 0.0000000000000000e+00 0.0000000000000000e+00  -4.6666588754820815e-03 0.0000000000000000e+00 0.0000000000000000e+00  -4.7888035821900118e-03 0.0000000000000000e+00 0.0000000000000000e+00  -4.7772980968171265e-03 0.0000000000000000e+00 0.0000000000000000e+00  -4.5773916941158647e-03 0.0000000000000000e+00 0.0000000000000000e+00  -4.1179223197774966e-03 0.0000000000000000e+00 0.0000000000000000e+00  -3.3072326152959121e-03 0.0000000000000000e+00 0.0000000000000000e+00  -2.0283382776245446e-03 0.0000000000000000e+00 0.0000000000000000e+00  -1.3325888565883241e-04 0.0000000000000000e+00 0.0000000000000000e+00  2.5636145738765831e-03 0.0000000000000000e+00 0.0000000000000000e+00  6.2933200972082820e-03 0.0000000000000000e+00 0.0000000000000000e+00  1.1341677931986621e-02 0.0000000000000000e+00 0.0000000000000000e+00  1.8061150100122259e-02 0.0000000000000000e+00 0.0000000000000000e+00  2.6889061210284584e-02 0.0000000000000000e+00 0.0000000000000000e+00  0.0000000000000000e+00 -6.2157785387242798e-07 0.0000000000000000e+00  6.1585051438253327e-07 6.1585051861097363e-07 0.0000000000000000e+00  -7.1995852618747306e-07 3.5874877177573290e-06 0.0000000000000000e+00  -5.7615360475952090e-06 8.3185949715531929e-06 0.0000000000000000e+00  -1.6398072211640474e-05 1.4859279635260281e-05 0.0000000000000000e+00  -3.4476017162106324e-05 2.3209880225424410e-05 0.0000000000000000e+00  -6.1797517934505483e-05 3.3342870790877252e-05 0.0000000000000000e+00  -1.0011745982204912e-04 4.5214834048584732e-05 0.0000000000000000e+00  -1.5113495655404177e-04 5.8770327668604335e-05 0.0000000000000000e+00  -2.1648186228543392e-04 7.3942628815970923e-05 0.0000000000000000e+00  -2.9770901296169769e-04 9.0653410013775523e-05 0.0000000000000000e+00  -3.9627000686453541e-04 1.0881204522827054e-04 0.0000000000000000e+00  -5.1350188682825382e-04 1.2831478498026046e-04 0.0000000000000000e+00  -6.5060171132966520e-04 1.4904389676720093e-04 0.0000000000000000e+00  -8.0859754835959144e-04 1.7086682587693776e-04 0.0000000000000000e+00  -9.8831181121995597e-04 1.9363542161003123e-04 0.0000000000000000e+00  -1.1903140052434589e-03 2.1718527425302250e-04 0.0000000000000000e+00  -1.4148587875134041e-03 2.4133521184656890e-04 0.0000000000000000e+00  -1.6618036605816242e-03 2.6588701111725406e-04 0.0000000000000000e+00  -1.9304985153757483e-03 2.9062538252099234e-04 0.0000000000000000e+00  -2.2196364853505554e-03 3.1531829457343995e-04 0.0000000000000000e+00  -2.5270520504729194e-03 3.3971770695666819e-04 0.0000000000000000e+00  -2.8494479274928397e-03 3.6356078415819852e-04 0.0000000000000000e+00  -3.1820269335824619e-03 3.8657166018192854e-04 0.0000000000000000e+00  -3.5179987184351777e-03 4.0846381781733677e-04 0.0000000000000000e+00  -3.8479241422213445e-03 4.2894313086668624e-04 0.0000000000000000e+00  -4.1588524019477609e-03 4.4771159075408681e-04 0.0000000000000000e+00  -4.4331982234931582e-03 4.6447169696553167e-04 0.0000000000000000e+00  -4.6472991599271615e-03 4.7893143176850098e-04 0.0000000000000000e+00  -4.7695869918623311e-03 4.9080966304141673e-04 0.0000000000000000e+00  -4.7583030818594829e-03 4.9984173067975683e-04 0.0000000000000000e+00  -4.5586856249446818e-03 5.0578488189294659e-04 0.0000000000000000e+00  -4.0995566368501142e-03 5.0842314699791138e-04 0.0000000000000000e+00  -3.2892364972586480e-03 5.0757120558156627e-04 0.0000000000000000e+00  -2.0107102182796233e-03 5.0307677924872488e-04 0.0000000000000000e+00  -1.1595593519981643e-04 4.9482101632654710e-04 0.0000000000000000e+00  2.5806875802191548e-03 4.8271585350348343e-04 0.0000000000000000e+00  6.3103061414856929e-03 4.6669506887891190e-04 0.0000000000000000e+00  1.1358663340011918e-02 4.4668570656935001e-04 0.0000000000000000e+00  1.8077413762508855e-02 4.2250067446521444e-04 0.0000000000000000e+00  2.6897584593868269e-02 3.9337438545687843e-04 0.0000000000000000e+00  0.0000000000000000e+00 -2.8043155161363837e-06 0.0000000000000000e+00  3.5874877181453823e-06 -7.1995852013236221e-07 0.0000000000000000e+00  5.0924273586305856e-06 5.0924273564876422e-06 0.0000000000000000e+00  2.8528605314113229e-06 1.4570832948731025e-05 0.0000000000000000e+00  -4.9829701530767590e-06 2.7698050573422100e-05 0.0000000000000000e+00  -2.0255219840531008e-05 4.4438591307241456e-05 0.0000000000000000e+00  -4.4769146276175347e-05 6.4733305966276043e-05 0.0000000000000000e+00  -8.0284534919486492e-05 8.8498811915698172e-05 0.0000000000000000e+00  -1.2850587475919911e-04 1.1562815557264909e-04 0.0000000000000000e+00  -1.9107101389051592e-04 1.4599100512974295e-04 0.0000000000000000e+00  -2.6953773561639080e-04 1.7943309188404351e-04 0.0000000000000000e+00  -3.6536781468556224e-04 2.1577509232044729e-04 0.0000000000000000e+00  -4.7990788971318026e-04 2.5481118367448510e-04 0.0000000000000000e+00  -6.1436615040878003e-04 2.9630745241846233e-04 0.0000000000000000e+00  -7.6978338379854233e-04 3.4000029051150436e-04 0.0000000000000000e+00  -9.4699630204813951e-04 3.8559489124587583e-04 0.0000000000000000e+00  -1.1465902192356484e-03 4.3276394945446732e-04 0.0000000000000000e+00  -1.3688369736629164e-03 4.8114667289094322e-04 0.0000000000000000e+00  -1.6136124093323794e-03 5.3034821815004960e-04 0.0000000000000000e+00  -1.8802856232514697e-03 5.7993967288072512e-04 0.0000000000000000e+00  -2.1675694320195931e-03 6.2945871410238188e-04 0.0000000000000000e+00  -2.4733179889349665e-03 6.7841107834720738e-04 0.0000000000000000e+00  -2.7942530829525914e-03 7.2627298118247362e-04 0.0000000000000000e+00  -3.1255953059289060e-03 7.7249461834199553e-04 0.0000000000000000e+00  -3.4605699888212021e-03 8.1650486529019075e-04 0.0000000000000000e+00  -3.7897506983615896e-03 8.5771726196609728e-04 0.0000000000000000e+00  -4.1001954212358466e-03 8.9553732032953044e-04 0.0000000000000000e+00  -4.3743227885433816e-03 9.2937111932577638e-04 0.0000000000000000e+00  -4.5884684261985114e-03 9.5863505241879847e-04 0.0000000000000000e+00  -4.7110554765844789e-03 9.8276646579286428e-04 0.0000000000000000e+00  -4.7003091899779680e-03 1.0012347760072324e-03 0.0000000000000000e+00  -4.5014435631230143e-03 1.0135524910420436e-03 0.0000000000000000e+00  -4.0432478937365767e-03 1.0192853846073512e-03 0.0000000000000000e+00  -3.2340011296766178e-03 1.0180608703354303e-03 0.0000000000000000e+00  -1.9566384371225440e-03 1.0095732841953551e-03 0.0000000000000000e+00  -6.3081421205147612e-05 9.9358394641042846e-04 0.0000000000000000e+00  2.6323881092827394e-03 9.6991140333167877e-04 0.0000000000000000e+00  6.3608928576492901e-03 9.3839965052774997e-04 0.0000000000000000e+00  1.1408149102195144e-02 8.9882880833877087e-04 0.0000000000000000e+00  1.8125504866901183e-02 8.5066413069324529e-04 0.0000000000000000e+00  2.6943337703846104e-02 7.9236053039770263e-04 0.0000000000000000e+00  0.0000000000000000e+00 -8.7406836470558539e-06 0.0000000000000000e+00  8.3185949739382276e-06 -5.7615360457790349e-06 0.0000000000000000e+00  1.4570832954150550e-05 2.8528605267962982e-06 0.0000000000000000e+00  1.7032853245495450e-05 1.7032853240622655e-05 0.0000000000000000e+00  1.3883794807214090e-05 3.6722311835417357e-05 0.0000000000000000e+00  3.2926024245320506e-06 6.1849497728771484e-05 0.0000000000000000e+00  -1.6544953796753342e-05 9.2315497402054589e-05 0.0000000000000000e+00  -4.7391943848522784e-05 1.2799157481159474e-04 0.0000000000000000e+00  -9.0959005104686497e-05 1.6871753548122878e-04 0.0000000000000000e+00  -1.4889248010703778e-04 2.1430000122261487e-04 0.0000000000000000e+00  -2.2276091735063373e-04 2.6451047036236979e-04 0.0000000000000000e+00  -3.1403922374028949e-04 3.1908314529331959e-04 0.0000000000000000e+00  -4.2408967110510654e-04 3.7771257256134674e-04 0.0000000000000000e+00  -5.5413869174602702e-04 4.4005118724811535e-04 0.0000000000000000e+00  -7.0524797516674151e-04 5.0570687972270611e-04 0.0000000000000000e+00  -8.7827776917506534e-04 5.7424071841639284e-04 0.0000000000000000e+00  -1.0738394377735568e-03 6.4516497395475185e-04 0.0000000000000000e+00  -1.2922331583118012e-03 7.1794160187739064e-04 0.0000000000000000e+00  -1.5333650573968916e-03 7.9198135391727437e-04 0.0000000000000000e+00  -1.7966359781724246e-03 8.6664370053334081e-04 0.0000000000000000e+00  -2.0807913196683515e-03 9.4123775817440242e-04 0.0000000000000000e+00  -2.3837178689968055e-03 1.0150244219270289e-03 0.0000000000000000e+00  -2.7021691522725044e-03 1.0872199043412130e-03 0.0000000000000000e+00  -3.0313954923890233e-03 1.1570008710833878e-03 0.0000000000000000e+00  -3.3646486867014926e-03 1.2235113391602271e-03 0.0000000000000000e+00  -3.6925241225610347e-03 1.2858714580992064e-03 0.0000000000000000e+00  -4.0020955012544232e-03 1.3431882237405007e-03 0.0000000000000000e+00  -4.2757895861768825e-03 1.3945680708900502e-03 0.0000000000000000e+00  -4.4899411427659639e-03 1.4391311521315087e-03 0.0000000000000000e+00  -4.6129622139739306e-03 1.4760269302333720e-03 0.0000000000000000e+00  -4.6030557395007367e-03 1.5044504919386724e-03 0.0000000000000000e+00  -4.4054016156537890e-03 1.5236587259770903e-03 0.0000000000000000e+00  -3.9487432095547661e-03 1.5329851823117798e-03 0.0000000000000000e+00  -3.1413024436761803e-03 1.5318519760709108e-03 0.0000000000000000e+00  -1.8659484014831339e-03 1.5197763263514092e-03 0.0000000000000000e+00  2.5467781418367410e-05 1.4963677317656543e-03 0.0000000000000000e+00  2.7187284291747067e-03 1.4613082297960174e-03 0.0000000000000000e+00  6.4449887280513688e-03 1.4143003403972163e-03 0.0000000000000000e+00  1.1489906413588475e-02 1.3549520127944211e-03 0.0000000000000000e+00  1.8204554384873811e-02 1.2825489137968053e-03 0.0000000000000000e+00  2.7018633393040312e-02 1.1956949960202738e-03 0.0000000000000000e+00  0.0000000000000000e+00 -2.0301356758126504e-05 0.0000000000000000e+00  1.4859279636158287e-05 -1.6398072211800881e-05 0.0000000000000000e+00  2.7698050575916954e-05 -4.9829701554527898e-06 0.0000000000000000e+00  3.6722311834283091e-05 1.3883794805774571e-05 0.0000000000000000e+00  4.0121214971901565e-05 4.0121214976147727e-05 0.0000000000000000e+00  3.6070387325184619e-05 7.3626404715313308e-05 0.0000000000000000e+00  2.2765954790854252e-05 1.1426371141863887e-04 0.0000000000000000e+00  -1.5590518057590476e-06 1.6186048319463158e-04 0.0000000000000000e+00  -3.8622635524789590e-05 2.1620423911831413e-04 0.0000000000000000e+00  -9.0081829308102950e-05 2.7703987548976177e-04 0.0000000000000000e+00  -1.5751926038700553e-04 3.4406662656301981e-04 0.0000000000000000e+00  -2.4242743497419311e-04 4.1693478965223438e-04 0.0000000000000000e+00  -3.4618988481179079e-04 4.9524229421916727e-04 0.0000000000000000e+00  -4.7005806964712176e-04 5.7853122054321538e-04 0.0000000000000000e+00  -6.1512251522847659e-04 6.6628439653380141e-04 0.0000000000000000e+00  -7.8227606264161481e-04 7.5792222521111859e-04 0.0000000000000000e+00  -9.7216625683487932e-04 8.5279991907589753e-04 0.0000000000000000e+00  -1.1851327338898495e-03 9.5020534055882677e-04 0.0000000000000000e+00  -1.4211238849185751e-03 1.0493576693817817e-03 0.0000000000000000e+00  -1.6795849689618498e-03 1.1494071371868557e-03 0.0000000000000000e+00  -1.9593070981366806e-03 1.2494360848315483e-03 0.0000000000000000e+00  -2.2582230028126049e-03 1.3484616073279586e-03 0.0000000000000000e+00  -2.5731310970902956e-03 1.4454400502099823e-03 0.0000000000000000e+00  -2.8993240377080329e-03 1.5392736065848946e-03 0.0000000000000000e+00  -3.2300917095118729e-03 1.6288192298012296e-03 0.0000000000000000e+00  -3.5560614946335374e-03 1.7129000164036302e-03 0.0000000000000000e+00  -3.8643310591343692e-03 1.7903191213554657e-03 0.0000000000000000e+00  -4.1373411627480981e-03 1.8598761341415066e-03 0.0000000000000000e+00  -4.3514287778435145e-03 1.9203856645472136e-03 0.0000000000000000e+00  -4.4749948077648866e-03 1.9706976532072695e-03 0.0000000000000000e+00  -4.4662165867121071e-03 2.0097186297257873e-03 0.0000000000000000e+00  -4.2702334662290033e-03 2.0364327781055764e-03 0.0000000000000000e+00  -3.8157337746678463e-03 2.0499212112424603e-03 0.0000000000000000e+00  -3.0108716934312899e-03 2.0493772338191179e-03 0.0000000000000000e+00  -1.7384398014001518e-03 2.0341144333636610e-03 0.0000000000000000e+00  1.4978831132157625e-04 2.0035628894915255e-03 0.0000000000000000e+00  2.8396587304960952e-03 1.9572462445316876e-03 0.0000000000000000e+00  6.5623486491568819e-03 1.8947289149517236e-03 0.0000000000000000e+00  1.1603447283457177e-02 1.8155213654142575e-03 0.0000000000000000e+00  1.8313804891036477e-02 1.7189459396939797e-03 0.0000000000000000e+00  2.7122756467788785e-02 1.6040383860688398e-03 0.0000000000000000e+00  0.0000000000000000e+00 -3.9313733521400997e-05 0.0000000000000000e+00  2.3209880225883641e-05 -3.4476017163235853e-05 0.0000000000000000e+00  4.4438591308134418e-05 -2.0255219842924808e-05 0.0000000000000000e+00  6.1849497724805473e-05 3.2926024240963444e-06 0.0000000000000000e+00  7.3626404716357029e-05 3.6070387329474292e-05 0.0000000000000000e+00  7.7948418365583977e-05 7.7948418366277812e-05 0.0000000000000000e+00  7.3011129253385795e-05 1.2875761700000446e-04 0.0000000000000000e+00  5.7042762329222372e-05 1.8828454538911477e-04 0.0000000000000000e+00  2.8316482549790851e-05 2.5626757742393047e-04 0.0000000000000000e+00  -1.4837654976062561e-05 3.3239313677655655e-04 0.0000000000000000e+00  -7.4019486038077702e-05 4.1629167415571655e-04 0.0000000000000000e+00  -1.5074327611865499e-04 5.0753336231845151e-04 0.0000000000000000e+00  -2.4641909331573730e-04 6.0562359404452691e-04 0.0000000000000000e+00  -3.6232987220657752e-04 7.0999841336533988e-04 0.0000000000000000e+00  -4.9960261946153950e-04 8.2002003964255928e-04 0.0000000000000000e+00  -6.5917160989286295e-04 9.3497267100522985e-04 0.0000000000000000e+00  -8.4173057308850596e-04 1.0540587821741493e-03 0.0000000000000000e+00  -1.0476697026764108e-03 1.1763961601946623e-03 0.0000000000000000e+00  -1.2769917385216103e-03 1.3010159502493091e-03 0.0000000000000000e+00  -1.5291992687822768e-03 1.4268620091701845e-03 0.0000000000000000e+00  -1.8031426528645118e-03 1.5527918847462595e-03 0.0000000000000000e+00  -2.0968144573901260e-03 1.6775797512942432e-03 0.0000000000000000e+00  -2.4070719192491748e-03 1.7999216313753538e-03 0.0000000000000000e+00  -2.7292636368972029e-03 1.9184432157225554e-03 0.0000000000000000e+00  -3.0567304499722202e-03 2.0317105513309734e-03 0.0000000000000000e+00  -3.3801434162297694e-03 2.1382437943312117e-03 0.0000000000000000e+00  -3.6866342012334377e-03 2.2365341113816466e-03 0.0000000000000000e+00  -3.9586655029971241e-03 2.3250636522841369e-03 0.0000000000000000e+00  -4.1725819518836221e-03 2.4023282990964841e-03 0.0000000000000000e+00  -4.2967759695533387e-03 2.4668626149097219e-03 0.0000000000000000e+00  -4.2893990043626120e-03 2.5172660624930504e-03 0.0000000000000000e+00  -4.0955467341278655e-03 2.5522291298467783e-03 0.0000000000000000e+00  -3.6438468896071220e-03 2.5705574743940664e-03 0.0000000000000000e+00  -2.8423787640377597e-03 2.5711915543293212e-03 0.0000000000000000e+00  -1.5738509791685437e-03 2.5532184218450245e-03 0.0000000000000000e+00  3.1004677647189906e-04 2.5158714177326894e-03 0.0000000000000000e+00  2.9952295465952060e-03 2.4585127063125249e-03 0.0000000000000000e+00  6.7129064494987015e-03 2.3805941278870974e-03 0.0000000000000000e+00  1.1748636119346297e-02 2.2815973558640858e-03 0.0000000000000000e+00  1.8453172069853061e-02 2.1609729450987477e-03 0.0000000000000000e+00  2.7255792550413643e-02 2.0181397717827535e-03 0.0000000000000000e+00  0.0000000000000000e+00 -6.7572146171261465e-05 0.0000000000000000e+00  3.3342870792588326e-05 -6.1797517932529728e-05 0.0000000000000000e+00  6.4733305962051910e-05 -4.4769146274852776e-05 0.0000000000000000e+00  9.2315497395720748e-05 -1.6544953794330876e-05 0.0000000000000000e+00  1.1426371141147650e-04 2.2765954790352802e-05 0.0000000000000000e+00  1.2875761699142894e-04 7.3011129260780894e-05 0.0000000000000000e+00  1.3399158765026479e-04 1.3399158765536100e-04 0.0000000000000000e+00  1.2818849561379073e-04 2.0545679245622767e-04 0.0000000000000000e+00  1.0961159682067077e-04 2.8710000886937023e-04 0.0000000000000000e+00  7.6576186770836380e-05 3.7855359615838194e-04 0.0000000000000000e+00  2.7462465473187130e-05 4.7938398331324371e-04 0.0000000000000000e+00  -3.9269365923666123e-05 5.8908630373879090e-04 0.0000000000000000e+00  -1.2506079979909105e-04 7.0707877606569595e-04 0.0000000000000000e+00  -2.3123232448019594e-04 8.3269697602414677e-04 0.0000000000000000e+00  -3.5895475182110866e-04 9.6518818416774254e-04 0.0000000000000000e+00  -5.0921238705852422e-04 1.1037060292307221e-03 0.0000000000000000e+00  -6.8275500940108826e-04 1.2473056819890976e-03 0.0000000000000000e+00  -8.8003446242145456e-04 1.3949398898435716e-03 0.0000000000000000e+00  -1.1011200720590065e-03 1.5454561772377338e-03 0.0000000000000000e+00  -1.3455850079795010e-03 1.6975955693883358e-03 0.0000000000000000e+00  -1.6123529624552067e-03 1.8499932230074470e-03 0.0000000000000000e+00  -1.8994910194502761e-03 2.0011813645976701e-03 0.0000000000000000e+00  -2.2039302202227053e-03 2.1495949388488384e-03 0.0000000000000000e+00  -2.5210900358357798e-03 2.2935803509327281e-03 0.0000000000000000e+00  -2.8443767389093335e-03 2.4314076399843962e-03 0.0000000000000000e+00  -3.1645186454774734e-03 2.5612863376482963e-03 0.0000000000000000e+00  -3.4686936402688441e-03 2.6813851369835396e-03 0.0000000000000000e+00  -3.7393967475279214e-03 2.7898553131345031e-03 0.0000000000000000e+00  -3.9529883733918922e-03 2.8848575888473049e-03 0.0000000000000000e+00  -4.0778579371834132e-03 2.9645918179763099e-03 0.0000000000000000e+00  -4.0721335910183830e-03 3.0273284640251826e-03 0.0000000000000000e+00  -3.8808669509944058e-03 3.0714403801277552e-03 0.0000000000000000e+00  -3.4326218859905182e-03 3.0954328625556115e-03 0.0000000000000000e+00  -2.6353969027794748e-03 3.0979693830541131e-03 0.0000000000000000e+00  -1.3718082676151752e-03 3.0778898827604857e-03 0.0000000000000