<?xml version="1.0"?>
<VTKFile type="UnstructuredGrid"  version="0.1"  >
<UnstructuredGrid>
<Piece  NumberOfPoints="1681" NumberOfCells="3200">
<Points>
<DataArray  type="Float64"  NumberOfComponents="3"  format="ascii">0 0 0  0.5 0 0  1 0 0  1.5 0 0  2 0 0  2.5 0 0  3 0 0  3.5 0 0  4 0 0  4.5 0 0  5 0 0  5.5 0 0  6 0 0  6.5 0 0  7 0 0  7.5 0 0  8 0 0  8.5 0 0  9 0 0  9.5 0 0  10 0 0  10.5 0 0  11 0 0  11.5 0 0  12 0 0  12.5 0 0  13 0 0  13.5 0 0  14 0 0  14.5 0 0  15 0 0  15.5 0 0  16 0 0  16.5 0 0  17 0 0  17.5 0 0  18 0 0  18.5 0 0  19 0 0  19.5 0 0  20 0 0  0 0.5 0  0.5 0.5 0  1 0.5 0  1.5 0.5 0  2 0.5 0  2.5 0.5 0  3 0.5 0  3.5 0.5 0  4 0.5 0  4.5 0.5 0  5 0.5 0  5.5 0.5 0  6 0.5 0  6.5 0.5 0  7 0.5 0  7.5 0.5 0  8 0.5 0  8.5 0.5 0  9 0.5 0  9.5 0.5 0  10 0.5 0  10.5 0.5 0  11 0.5 0  11.5 0.5 0  12 0.5 0  12.5 0.5 0  13 0.5 0  13.5 0.5 0  14 0.5 0  14.5 0.5 0  15 0.5 0  15.5 0.5 0  16 0.5 0  16.5 0.5 0  17 0.5 0  17.5 0.5 0  18 0.5 0  18.5 0.5 0  19 0.5 0  19.5 0.5 0  20 0.5 0  0 1 0  0.5 1 0  1 1 0  1.5 1 0  2 1 0  2.5 1 0  3 1 0  3.5 1 0  4 1 0  4.5 1 0  5 1 0  5.5 1 0  6 1 0  6.5 1 0  7 1 0  7.5 1 0  8 1 0  8.5 1 0  9 1 0  9.5 1 0  10 1 0  10.5 1 0  11 1 0  11.5 1 0  12 1 0  12.5 1 0  13 1 0  13.5 1 0  14 1 0  14.5 1 0  15 1 0  15.5 1 0  16 1 0  16.5 1 0  17 1 0  17.5 1 0  18 1 0  18.5 1 0  19 1 0  19.5 1 0  20 1 0  0 1.5 0  0.5 1.5 0  1 1.5 0  1.5 1.5 0  2 1.5 0  2.5 1.5 0  3 1.5 0  3.5 1.5 0  4 1.5 0  4.5 1.5 0  5 1.5 0  5.5 1.5 0  6 1.5 0  6.5 1.5 0  7 1.5 0  7.5 1.5 0  8 1.5 0  8.5 1.5 0  9 1.5 0  9.5 1.5 0  10 1.5 0  10.5 1.5 0  11 1.5 0  11.5 1.5 0  12 1.5 0  12.5 1.5 0  13 1.5 0  13.5 1.5 0  14 1.5 0  14.5 1.5 0  15 1.5 0  15.5 1.5 0  16 1.5 0  16.5 1.5 0  17 1.5 0  17.5 1.5 0  18 1.5 0  18.5 1.5 0  19 1.5 0  19.5 1.5 0  20 1.5 0  0 2 0  0.5 2 0  1 2 0  1.5 2 0  2 2 0  2.5 2 0  3 2 0  3.5 2 0  4 2 0  4.5 2 0  5 2 0  5.5 2 0  6 2 0  6.5 2 0  7 2 0  7.5 2 0  8 2 0  8.5 2 0  9 2 0  9.5 2 0  10 2 0  10.5 2 0  11 2 0  11.5 2 0  12 2 0  12.5 2 0  13 2 0  13.5 2 0  14 2 0  14.5 2 0  15 2 0  15.5 2 0  16 2 0  16.5 2 0  17 2 0  17.5 2 0  18 2 0  18.5 2 0  19 2 0  19.5 2 0  20 2 0  0 2.5 0  0.5 2.5 0  1 2.5 0  1.5 2.5 0  2 2.5 0  2.5 2.5 0  3 2.5 0  3.5 2.5 0  4 2.5 0  4.5 2.5 0  5 2.5 0  5.5 2.5 0  6 2.5 0  6.5 2.5 0  7 2.5 0  7.5 2.5 0  8 2.5 0  8.5 2.5 0  9 2.5 0  9.5 2.5 0  10 2.5 0  10.5 2.5 0  11 2.5 0  11.5 2.5 0  12 2.5 0  12.5 2.5 0  13 2.5 0  13.5 2.5 0  14 2.5 0  14.5 2.5 0  15 2.5 0  15.5 2.5 0  16 2.5 0  16.5 2.5 0  17 2.5 0  17.5 2.5 0  18 2.5 0  18.5 2.5 0  19 2.5 0  19.5 2.5 0  20 2.5 0  0 3 0  0.5 3 0  1 3 0  1.5 3 0  2 3 0  2.5 3 0  3 3 0  3.5 3 0  4 3 0  4.5 3 0  5 3 0  5.5 3 0  6 3 0  6.5 3 0  7 3 0  7.5 3 0  8 3 0  8.5 3 0  9 3 0  9.5 3 0  10 3 0  10.5 3 0  11 3 0  11.5 3 0  12 3 0  12.5 3 0  13 3 0  13.5 3 0  14 3 0  14.5 3 0  15 3 0  15.5 3 0  16 3 0  16.5 3 0  17 3 0  17.5 3 0  18 3 0  18.5 3 0  19 3 0  19.5 3 0  20 3 0  0 3.5 0  0.5 3.5 0  1 3.5 0  1.5 3.5 0  2 3.5 0  2.5 3.5 0  3 3.5 0  3.5 3.5 0  4 3.5 0  4.5 3.5 0  5 3.5 0  5.5 3.5 0  6 3.5 0  6.5 3.5 0  7 3.5 0  7.5 3.5 0  8 3.5 0  8.5 3.5 0  9 3.5 0  9.5 3.5 0  10 3.5 0  10.5 3.5 0  11 3.5 0  11.5 3.5 0  12 3.5 0  12.5 3.5 0  13 3.5 0  13.5 3.5 0  14 3.5 0  14.5 3.5 0  15 3.5 0  15.5 3.5 0  16 3.5 0  16.5 3.5 0  17 3.5 0  17.5 3.5 0  18 3.5 0  18.5 3.5 0  19 3.5 0  19.5 3.5 0  20 3.5 0  0 4 0  0.5 4 0  1 4 0  1.5 4 0  2 4 0  2.5 4 0  3 4 0  3.5 4 0  4 4 0  4.5 4 0  5 4 0  5.5 4 0  6 4 0  6.5 4 0  7 4 0  7.5 4 0  8 4 0  8.5 4 0  9 4 0  9.5 4 0  10 4 0  10.5 4 0  11 4 0  11.5 4 0  12 4 0  12.5 4 0  13 4 0  13.5 4 0  14 4 0  14.5 4 0  15 4 0  15.5 4 0  16 4 0  16.5 4 0  17 4 0  17.5 4 0  18 4 0  18.5 4 0  19 4 0  19.5 4 0  20 4 0  0 4.5 0  0.5 4.5 0  1 4.5 0  1.5 4.5 0  2 4.5 0  2.5 4.5 0  3 4.5 0  3.5 4.5 0  4 4.5 0  4.5 4.5 0  5 4.5 0  5.5 4.5 0  6 4.5 0  6.5 4.5 0  7 4.5 0  7.5 4.5 0  8 4.5 0  8.5 4.5 0  9 4.5 0  9.5 4.5 0  10 4.5 0  10.5 4.5 0  11 4.5 0  11.5 4.5 0  12 4.5 0  12.5 4.5 0  13 4.5 0  13.5 4.5 0  14 4.5 0  14.5 4.5 0  15 4.5 0  15.5 4.5 0  16 4.5 0  16.5 4.5 0  17 4.5 0  17.5 4.5 0  18 4.5 0  18.5 4.5 0  19 4.5 0  19.5 4.5 0  20 4.5 0  0 5 0  0.5 5 0  1 5 0  1.5 5 0  2 5 0  2.5 5 0  3 5 0  3.5 5 0  4 5 0  4.5 5 0  5 5 0  5.5 5 0  6 5 0  6.5 5 0  7 5 0  7.5 5 0  8 5 0  8.5 5 0  9 5 0  9.5 5 0  10 5 0  10.5 5 0  11 5 0  11.5 5 0  12 5 0  12.5 5 0  13 5 0  13.5 5 0  14 5 0  14.5 5 0  15 5 0  15.5 5 0  16 5 0  16.5 5 0  17 5 0  17.5 5 0  18 5 0  18.5 5 0  19 5 0  19.5 5 0  20 5 0  0 5.5 0  0.5 5.5 0  1 5.5 0  1.5 5.5 0  2 5.5 0  2.5 5.5 0  3 5.5 0  3.5 5.5 0  4 5.5 0  4.5 5.5 0  5 5.5 0  5.5 5.5 0  6 5.5 0  6.5 5.5 0  7 5.5 0  7.5 5.5 0  8 5.5 0  8.5 5.5 0  9 5.5 0  9.5 5.5 0  10 5.5 0  10.5 5.5 0  11 5.5 0  11.5 5.5 0  12 5.5 0  12.5 5.5 0  13 5.5 0  13.5 5.5 0  14 5.5 0  14.5 5.5 0  15 5.5 0  15.5 5.5 0  16 5.5 0  16.5 5.5 0  17 5.5 0  17.5 5.5 0  18 5.5 0  18.5 5.5 0  19 5.5 0  19.5 5.5 0  20 5.5 0  0 6 0  0.5 6 0  1 6 0  1.5 6 0  2 6 0  2.5 6 0  3 6 0  3.5 6 0  4 6 0  4.5 6 0  5 6 0  5.5 6 0  6 6 0  6.5 6 0  7 6 0  7.5 6 0  8 6 0  8.5 6 0  9 6 0  9.5 6 0  10 6 0  10.5 6 0  11 6 0  11.5 6 0  12 6 0  12.5 6 0  13 6 0  13.5 6 0  14 6 0  14.5 6 0  15 6 0  15.5 6 0  16 6 0  16.5 6 0  17 6 0  17.5 6 0  18 6 0  18.5 6 0  19 6 0  19.5 6 0  20 6 0  0 6.5 0  0.5 6.5 0  1 6.5 0  1.5 6.5 0  2 6.5 0  2.5 6.5 0  3 6.5 0  3.5 6.5 0  4 6.5 0  4.5 6.5 0  5 6.5 0  5.5 6.5 0  6 6.5 0  6.5 6.5 0  7 6.5 0  7.5 6.5 0  8 6.5 0  8.5 6.5 0  9 6.5 0  9.5 6.5 0  10 6.5 0  10.5 6.5 0  11 6.5 0  11.5 6.5 0  12 6.5 0  12.5 6.5 0  13 6.5 0  13.5 6.5 0  14 6.5 0  14.5 6.5 0  15 6.5 0  15.5 6.5 0  16 6.5 0  16.5 6.5 0  17 6.5 0  17.5 6.5 0  18 6.5 0  18.5 6.5 0  19 6.5 0  19.5 6.5 0  20 6.5 0  0 7 0  0.5 7 0  1 7 0  1.5 7 0  2 7 0  2.5 7 0  3 7 0  3.5 7 0  4 7 0  4.5 7 0  5 7 0  5.5 7 0  6 7 0  6.5 7 0  7 7 0  7.5 7 0  8 7 0  8.5 7 0  9 7 0  9.5 7 0  10 7 0  10.5 7 0  11 7 0  11.5 7 0  12 7 0  12.5 7 0  13 7 0  13.5 7 0  14 7 0  14.5 7 0  15 7 0  15.5 7 0  16 7 0  16.5 7 0  17 7 0  17.5 7 0  18 7 0  18.5 7 0  19 7 0  19.5 7 0  20 7 0  0 7.5 0  0.5 7.5 0  1 7.5 0  1.5 7.5 0  2 7.5 0  2.5 7.5 0  3 7.5 0  3.5 7.5 0  4 7.5 0  4.5 7.5 0  5 7.5 0  5.5 7.5 0  6 7.5 0  6.5 7.5 0  7 7.5 0  7.5 7.5 0  8 7.5 0  8.5 7.5 0  9 7.5 0  9.5 7.5 0  10 7.5 0  10.5 7.5 0  11 7.5 0  11.5 7.5 0  12 7.5 0  12.5 7.5 0  13 7.5 0  13.5 7.5 0  14 7.5 0  14.5 7.5 0  15 7.5 0  15.5 7.5 0  16 7.5 0  16.5 7.5 0  17 7.5 0  17.5 7.5 0  18 7.5 0  18.5 7.5 0  19 7.5 0  19.5 7.5 0  20 7.5 0  0 8 0  0.5 8 0  1 8 0  1.5 8 0  2 8 0  2.5 8 0  3 8 0  3.5 8 0  4 8 0  4.5 8 0  5 8 0  5.5 8 0  6 8 0  6.5 8 0  7 8 0  7.5 8 0  8 8 0  8.5 8 0  9 8 0  9.5 8 0  10 8 0  10.5 8 0  11 8 0  11.5 8 0  12 8 0  12.5 8 0  13 8 0  13.5 8 0  14 8 0  14.5 8 0  15 8 0  15.5 8 0  16 8 0  16.5 8 0  17 8 0  17.5 8 0  18 8 0  18.5 8 0  19 8 0  19.5 8 0  20 8 0  0 8.5 0  0.5 8.5 0  1 8.5 0  1.5 8.5 0  2 8.5 0  2.5 8.5 0  3 8.5 0  3.5 8.5 0  4 8.5 0  4.5 8.5 0  5 8.5 0  5.5 8.5 0  6 8.5 0  6.5 8.5 0  7 8.5 0  7.5 8.5 0  8 8.5 0  8.5 8.5 0  9 8.5 0  9.5 8.5 0  10 8.5 0  10.5 8.5 0  11 8.5 0  11.5 8.5 0  12 8.5 0  12.5 8.5 0  13 8.5 0  13.5 8.5 0  14 8.5 0  14.5 8.5 0  15 8.5 0  15.5 8.5 0  16 8.5 0  16.5 8.5 0  17 8.5 0  17.5 8.5 0  18 8.5 0  18.5 8.5 0  19 8.5 0  19.5 8.5 0  20 8.5 0  0 9 0  0.5 9 0  1 9 0  1.5 9 0  2 9 0  2.5 9 0  3 9 0  3.5 9 0  4 9 0  4.5 9 0  5 9 0  5.5 9 0  6 9 0  6.5 9 0  7 9 0  7.5 9 0  8 9 0  8.5 9 0  9 9 0  9.5 9 0  10 9 0  10.5 9 0  11 9 0  11.5 9 0  12 9 0  12.5 9 0  13 9 0  13.5 9 0  14 9 0  14.5 9 0  15 9 0  15.5 9 0  16 9 0  16.5 9 0  17 9 0  17.5 9 0  18 9 0  18.5 9 0  19 9 0  19.5 9 0  20 9 0  0 9.5 0  0.5 9.5 0  1 9.5 0  1.5 9.5 0  2 9.5 0  2.5 9.5 0  3 9.5 0  3.5 9.5 0  4 9.5 0  4.5 9.5 0  5 9.5 0  5.5 9.5 0  6 9.5 0  6.5 9.5 0  7 9.5 0  7.5 9.5 0  8 9.5 0  8.5 9.5 0  9 9.5 0  9.5 9.5 0  10 9.5 0  10.5 9.5 0  11 9.5 0  11.5 9.5 0  12 9.5 0  12.5 9.5 0  13 9.5 0  13.5 9.5 0  14 9.5 0  14.5 9.5 0  15 9.5 0  15.5 9.5 0  16 9.5 0  16.5 9.5 0  17 9.5 0  17.5 9.5 0  18 9.5 0  18.5 9.5 0  19 9.5 0  19.5 9.5 0  20 9.5 0  0 10 0  0.5 10 0  1 10 0  1.5 10 0  2 10 0  2.5 10 0  3 10 0  3.5 10 0  4 10 0  4.5 10 0  5 10 0  5.5 10 0  6 10 0  6.5 10 0  7 10 0  7.5 10 0  8 10 0  8.5 10 0  9 10 0  9.5 10 0  10 10 0  10.5 10 0  11 10 0  11.5 10 0  12 10 0  12.5 10 0  13 10 0  13.5 10 0  14 10 0  14.5 10 0  15 10 0  15.5 10 0  16 10 0  16.5 10 0  17 10 0  17.5 10 0  18 10 0  18.5 10 0  19 10 0  19.5 10 0  20 10 0  0 10.5 0  0.5 10.5 0  1 10.5 0  1.5 10.5 0  2 10.5 0  2.5 10.5 0  3 10.5 0  3.5 10.5 0  4 10.5 0  4.5 10.5 0  5 10.5 0  5.5 10.5 0  6 10.5 0  6.5 10.5 0  7 10.5 0  7.5 10.5 0  8 10.5 0  8.5 10.5 0  9 10.5 0  9.5 10.5 0  10 10.5 0  10.5 10.5 0  11 10.5 0  11.5 10.5 0  12 10.5 0  12.5 10.5 0  13 10.5 0  13.5 10.5 0  14 10.5 0  14.5 10.5 0  15 10.5 0  15.5 10.5 0  16 10.5 0  16.5 10.5 0  17 10.5 0  17.5 10.5 0  18 10.5 0  18.5 10.5 0  19 10.5 0  19.5 10.5 0  20 10.5 0  0 11 0  0.5 11 0  1 11 0  1.5 11 0  2 11 0  2.5 11 0  3 11 0  3.5 11 0  4 11 0  4.5 11 0  5 11 0  5.5 11 0  6 11 0  6.5 11 0  7 11 0  7.5 11 0  8 11 0  8.5 11 0  9 11 0  9.5 11 0  10 11 0  10.5 11 0  11 11 0  11.5 11 0  12 11 0  12.5 11 0  13 11 0  13.5 11 0  14 11 0  14.5 11 0  15 11 0  15.5 11 0  16 11 0  16.5 11 0  17 11 0  17.5 11 0  18 11 0  18.5 11 0  19 11 0  19.5 11 0  20 11 0  0 11.5 0  0.5 11.5 0  1 11.5 0  1.5 11.5 0  2 11.5 0  2.5 11.5 0  3 11.5 0  3.5 11.5 0  4 11.5 0  4.5 11.5 0  5 11.5 0  5.5 11.5 0  6 11.5 0  6.5 11.5 0  7 11.5 0  7.5 11.5 0  8 11.5 0  8.5 11.5 0  9 11.5 0  9.5 11.5 0  10 11.5 0  10.5 11.5 0  11 11.5 0  11.5 11.5 0  12 11.5 0  12.5 11.5 0  13 11.5 0  13.5 11.5 0  14 11.5 0  14.5 11.5 0  15 11.5 0  15.5 11.5 0  16 11.5 0  16.5 11.5 0  17 11.5 0  17.5 11.5 0  18 11.5 0  18.5 11.5 0  19 11.5 0  19.5 11.5 0  20 11.5 0  0 12 0  0.5 12 0  1 12 0  1.5 12 0  2 12 0  2.5 12 0  3 12 0  3.5 12 0  4 12 0  4.5 12 0  5 12 0  5.5 12 0  6 12 0  6.5 12 0  7 12 0  7.5 12 0  8 12 0  8.5 12 0  9 12 0  9.5 12 0  10 12 0  10.5 12 0  11 12 0  11.5 12 0  12 12 0  12.5 12 0  13 12 0  13.5 12 0  14 12 0  14.5 12 0  
[...]
<PointData  Vectors="f_4890-0"> 
<DataArray  type="Float64"  Name="f_4890-0"  NumberOfComponents="3" format="ascii">0.0000000000000000e+00 0.0000000000000000e+00 0.0000000000000000e+00  -3.5553146409538479e-08 0.0000000000000000e+00 0.0000000000000000e+00  -1.9238749666487027e-07 0.0000000000000000e+00 0.0000000000000000e+00  -6.1890450591363457e-07 0.0000000000000000e+00 0.0000000000000000e+00  -1.4482063281447660e-06 0.0000000000000000e+00 0.0000000000000000e+00  -2.8112592957574778e-06 0.0000000000000000e+00 0.0000000000000000e+00  -4.8369052657221017e-06 0.0000000000000000e+00 0.0000000000000000e+00  -7.6510865843142356e-06 0.0000000000000000e+00 0.0000000000000000e+00  -1.1376073726128085e-05 0.0000000000000000e+00 0.0000000000000000e+00  -1.6129684445619465e-05 0.0000000000000000e+00 0.0000000000000000e+00  -2.2024465456889036e-05 0.0000000000000000e+00 0.0000000000000000e+00  -2.9166822332171556e-05 0.0000000000000000e+00 0.0000000000000000e+00  -3.7656091061094219e-05 0.0000000000000000e+00 0.0000000000000000e+00  -4.7583549027818124e-05 0.0000000000000000e+00 0.0000000000000000e+00  -5.9031366177195416e-05 0.0000000000000000e+00 0.0000000000000000e+00  -7.2071500041527629e-05 0.0000000000000000e+00 0.0000000000000000e+00  -8.6764540718526037e-05 0.0000000000000000e+00 0.0000000000000000e+00  -1.0315851386777036e-04 0.0000000000000000e+00 0.0000000000000000e+00  -1.2128765039704511e-04 0.0000000000000000e+00 0.0000000000000000e+00  -1.4117112913691096e-04 0.0000000000000000e+00 0.0000000000000000e+00  -1.6281179066740298e-04 0.0000000000000000e+00 0.0000000000000000e+00  -1.8619479988091797e-04 0.0000000000000000e+00 0.0000000000000000e+00  -2.1128619014661399e-04 0.0000000000000000e+00 0.0000000000000000e+00  -2.3803112837410544e-04 0.0000000000000000e+00 0.0000000000000000e+00  -2.6635154891785189e-04 0.0000000000000000e+00 0.0000000000000000e+00  -2.9614241723889372e-04 0.0000000000000000e+00 0.0000000000000000e+00  -3.2726510476125987e-04 0.0000000000000000e+00 0.0000000000000000e+00  -3.5953479137790239e-04 0.0000000000000000e+00 0.0000000000000000e+00  -3.9269567821192833e-04 0.0000000000000000e+00 0.0000000000000000e+00  -4.2637154083842660e-04 0.0000000000000000e+00 0.0000000000000000e+00  -4.5996674637127649e-04 0.0000000000000000e+00 0.0000000000000000e+00  -4.9246844404944926e-04 0.0000000000000000e+00 0.0000000000000000e+00  -5.2205320485843325e-04 0.0000000000000000e+00 0.0000000000000000e+00  -5.4531100250519444e-04 0.0000000000000000e+00 0.0000000000000000e+00  -5.5573237162594657e-04 0.0000000000000000e+00 0.0000000000000000e+00  -5.4081072235761152e-04 0.0000000000000000e+00 0.0000000000000000e+00  -4.7663766931659382e-04 0.0000000000000000e+00 0.0000000000000000e+00  -3.1822539811997345e-04 0.0000000000000000e+00 0.0000000000000000e+00  1.6750729782968106e-05 0.0000000000000000e+00 0.0000000000000000e+00  6.7269908507200014e-04 0.0000000000000000e+00 0.0000000000000000e+00  1.8898629610071493e-03 0.0000000000000000e+00 0.0000000000000000e+00  0.0000000000000000e+00 -3.5553144611947291e-08 0.0000000000000000e+00  4.6653022324096578e-08 4.6653021452387867e-08 0.0000000000000000e+00  -4.6894611300902389e-08 2.5488388576980988e-07 0.0000000000000000e+00  -4.0774287872995090e-07 5.9184392139949617e-07 0.0000000000000000e+00  -1.1701916643643757e-06 1.0597264968337400e-06 0.0000000000000000e+00  -2.4661140656362218e-06 1.6577358058337282e-06 0.0000000000000000e+00  -4.4246689465479761e-06 2.3835047426339112e-06 0.0000000000000000e+00  -7.1719352450907449e-06 3.2337206137353332e-06 0.0000000000000000e+00  -1.0830291751400770e-05 4.2042870353751477e-06 0.0000000000000000e+00  -1.5517682763677996e-05 5.2903262717720079e-06 0.0000000000000000e+00  -2.1346814061757825e-05 6.4861329389524321e-06 0.0000000000000000e+00  -2.8424287642746716e-05 7.7851132566065256e-06 0.0000000000000000e+00  -3.6849675150264464e-05 9.1797207114669733e-06 0.0000000000000000e+00  -4.6714529370715673e-05 1.0661392358814358e-05 0.0000000000000000e+00  -5.8101334935517294e-05 1.2220488736071187e-05 0.0000000000000000e+00  -7.1082401832854217e-05 1.3846240097941687e-05 0.0000000000000000e+00  -8.5718707695869214e-05 1.5526701930130922e-05 0.0000000000000000e+00  -1.0205869685307636e-04 1.7248722818327516e-05 0.0000000000000000e+00  -1.2013704477132124e-04 1.8997927677812184e-05 0.0000000000000000e+00  -1.3997339444412894e-04 2.0758719129958842e-05 0.0000000000000000e+00  -1.6157106315020371e-04 2.2514299024245382e-05 0.0000000000000000e+00  -1.8491569805852896e-04 2.4246710671149046e-05 0.0000000000000000e+00  -2.0997381485744502e-04 2.5936900200198340e-05 0.0000000000000000e+00  -2.3669106093966621e-04 2.7564791570033424e-05 0.0000000000000000e+00  -2.6498985470650829e-04 2.9109364122260530e-05 0.0000000000000000e+00  -2.9476566736448166e-04 3.0548713090221745e-05 0.0000000000000000e+00  -3.2588043663484863e-04 3.1860061167086753e-05 0.0000000000000000e+00  -3.5815003909875733e-04 3.3019673558065961e-05 0.0000000000000000e+00  -3.9131961431475255e-04 3.4002611612706069e-05 0.0000000000000000e+00  -4.2501427269346301e-04 3.4782251205837565e-05 0.0000000000000000e+00  -4.5864027921645265e-04 3.5329518659249081e-05 0.0000000000000000e+00  -4.9118729700089721e-04 3.5611925672948742e-05 0.0000000000000000e+00  -5.2083461188821270e-04 3.5592857176185155e-05 0.0000000000000000e+00  -5.4417338813372244e-04 3.5232439077741129e-05 0.0000000000000000e+00  -5.5468907014584370e-04 3.4493018323634287e-05 0.0000000000000000e+00  -5.3985306722736535e-04 3.3354798122808674e-05 0.0000000000000000e+00  -4.7569877289266961e-04 3.1848390493697027e-05 0.0000000000000000e+00  -3.1711897475773625e-04 3.0101939023180331e-05 0.0000000000000000e+00  1.8397649329432742e-05 2.8354082114607509e-05 0.0000000000000000e+00  6.7537718374635657e-04 2.6731609749019442e-05 0.0000000000000000e+00  1.8920468627160955e-03 2.4151625642228677e-05 0.0000000000000000e+00  0.0000000000000000e+00 -1.9238749693013674e-07 0.0000000000000000e+00  2.5488388780555600e-07 -4.6894611523012539e-08 0.0000000000000000e+00  3.6435656943425453e-07 3.6435656854940156e-07 0.0000000000000000e+00  2.0488048050906816e-07 1.0396061511518768e-06 0.0000000000000000e+00  -3.5623462716888260e-07 1.9775793924349202e-06 0.0000000000000000e+00  -1.4506821094406121e-06 3.1752743540229299e-06 0.0000000000000000e+00  -3.2078464504714820e-06 4.6279813154252636e-06 0.0000000000000000e+00  -5.7541054936286035e-06 6.3293440295863857e-06 0.0000000000000000e+00  -9.2121756611164062e-06 8.2714000198476219e-06 0.0000000000000000e+00  -1.3700400066650222e-05 1.0444561180783836e-05 0.0000000000000000e+00  -1.9331967621948921e-05 1.2837543265696888e-05 0.0000000000000000e+00  -2.6214063808997437e-05 1.5437263787679567e-05 0.0000000000000000e+00  -3.4446953928970255e-05 1.8228724293315549e-05 0.0000000000000000e+00  -4.4122999622697743e-05 2.1194888002063443e-05 0.0000000000000000e+00  -5.5325610569666471e-05 2.4316561123592654e-05 0.0000000000000000e+00  -6.8128135087612749e-05 2.7572284905469438e-05 0.0000000000000000e+00  -8.2592695588497525e-05 3.0938245193437169e-05 0.0000000000000000e+00  -9.8768976730939740e-05 3.4388206260604045e-05 0.0000000000000000e+00  -1.1669297494213204e-04 3.7893475465585697e-05 0.0000000000000000e+00  -1.3638571620121779e-04 4.1422904927520116e-05 0.0000000000000000e+00  -1.5785194138187770e-04 4.4942935158811829e-05 0.0000000000000000e+00  -1.8107873929269397e-04 4.8417683533492876e-05 0.0000000000000000e+00  -2.0603406440784216e-04 5.1809077075352893e-05 0.0000000000000000e+00  -2.3266498521279993e-04 5.5077023694830171e-05 0.0000000000000000e+00  -2.6089532126305552e-04 5.8179608435874240e-05 0.0000000000000000e+00  -2.9062194418654960e-04 6.1073291005830655e-05 0.0000000000000000e+00  -3.2170824256877494e-04 6.3713068362131783e-05 0.0000000000000000e+00  -3.5397168635059486e-04 6.6052554189189179e-05 0.0000000000000000e+00  -3.8715928065597430e-04 6.8043923808478037e-05 0.0000000000000000e+00  -4.2089839976848503e-04 6.9637698787338145e-05 0.0000000000000000e+00  -4.5459795527606880e-04 7.0782444304956149e-05 0.0000000000000000e+00  -4.8725012760394488e-04 7.1424709120451485e-05 0.0000000000000000e+00  -5.1703479757957550e-04 7.1510089691328689e-05 0.0000000000000000e+00  -5.4053721968698204e-04 7.0987293481895351e-05 0.0000000000000000e+00  -5.5122068003700452e-04 6.9818425014652569e-05 0.0000000000000000e+00  -5.3650099778578474e-04 6.7999305856759486e-05 0.0000000000000000e+00  -4.7230039539653641e-04 6.5589392481410665e-05 0.0000000000000000e+00  -3.1333857451407442e-04 6.2731507975815918e-05 0.0000000000000000e+00  2.3053052593225803e-05 5.9589424737822646e-05 0.0000000000000000e+00  6.8120888915863354e-04 5.6037730202400443e-05 0.0000000000000000e+00  1.8978520652154806e-03 5.0902044594320764e-05 0.0000000000000000e+00  0.0000000000000000e+00 -6.1890450705209661e-07 0.0000000000000000e+00  5.9184392152918221e-07 -4.0774287970207420e-07 0.0000000000000000e+00  1.0396061501083495e-06 2.0488047946435472e-07 0.0000000000000000e+00  1.2164876328596863e-06 1.2164876337035698e-06 0.0000000000000000e+00  9.9115707208563975e-07 2.6236195867205513e-06 0.0000000000000000e+00  2.3222310895430654e-07 4.4210011602129226e-06 0.0000000000000000e+00  -1.1897768527972648e-06 6.6012284952867953e-06 0.0000000000000000e+00  -3.4015178992072361e-06 9.1547236081015667e-06 0.0000000000000000e+00  -6.5261801498257192e-06 1.2069657274114771e-05 0.0000000000000000e+00  -1.0682726291349238e-05 1.5331829380617809e-05 0.0000000000000000e+00  -1.5985128084140198e-05 1.8924519643374443e-05 0.0000000000000000e+00  -2.2541529336436591e-05 2.2828317445517063e-05 0.0000000000000000e+00  -3.0453340092981624e-05 2.7020939017557659e-05 0.0000000000000000e+00  -3.9814260172752044e-05 3.1477040739480207e-05 0.0000000000000000e+00  -5.0709232708802137e-05 3.6168037801601283e-05 0.0000000000000000e+00  -6.3213330616637196e-05 4.1061938015432972e-05 0.0000000000000000e+00  -7.7390581345685379e-05 4.6123200938409831e-05 0.0000000000000000e+00  -9.3292737343691191e-05 5.1312632802400052e-05 0.0000000000000000e+00  -1.1095800070343810e-04 5.6587327828791883e-05 0.0000000000000000e+00  -1.3040970912649218e-04 6.1900666192556754e-05 0.0000000000000000e+00  -1.5165498341174113e-04 6.7202377634086177e-05 0.0000000000000000e+00  -1.7468331829380420e-04 7.2438677644499108e-05 0.0000000000000000e+00  -1.9946505666035774e-04 7.7552479492601839e-05 0.0000000000000000e+00  -2.2594959744426504e-04 8.2483680127792711e-05 0.0000000000000000e+00  -2.5406300106484446e-04 8.7169510909303313e-05 0.0000000000000000e+00  -2.8370427416069406e-04 9.1544935812637630e-05 0.0000000000000000e+00  -3.1473883795017199e-04 9.5543072013143160e-05 0.0000000000000000e+00  -3.4698611130007736e-04 9.9095605673745301e-05 0.0000000000000000e+00  -3.8019496906595507e-04 1.0213319025201718e-04 0.0000000000000000e+00  -4.1399447958992305e-04 1.0458586778241415e-04 0.0000000000000000e+00  -4.4779466961672633e-04 1.0638368364089612e-04 0.0000000000000000e+00  -4.8058712175787249e-04 1.0745792769497608e-04 0.0000000000000000e+00  -5.1054677721469848e-04 1.0774387797059866e-04 0.0000000000000000e+00  -5.3424435665349202e-04 1.0718648824475487e-04 0.0000000000000000e+00  -5.4511011878206049e-04 1.0575070421026394e-04 0.0000000000000000e+00  -5.3049685262899766e-04 1.0343659728647805e-04 0.0000000000000000e+00  -4.6622792952743857e-04 1.0029307640388198e-04 0.0000000000000000e+00  -3.0691352865459034e-04 9.6407791483419170e-05 0.0000000000000000e+00  3.0128000096416209e-05 9.1824301595856871e-05 0.0000000000000000e+00  6.8890264808590463e-04 8.6326503403993959e-05 0.0000000000000000e+00  1.9051785758132831e-03 7.9146042584475311e-05 0.0000000000000000e+00  0.0000000000000000e+00 -1.4482063308352207e-06 0.0000000000000000e+00  1.0597264965852565e-06 -1.1701916633436914e-06 0.0000000000000000e+00  1.9775793907914226e-06 -3.5623462850179885e-07 0.0000000000000000e+00  2.6236195850382681e-06 9.9115707323541265e-07 0.0000000000000000e+00  2.8669467925756376e-06 2.8669467929914346e-06 0.0000000000000000e+00  2.5763744525376966e-06 5.2638143356563670e-06 0.0000000000000000e+00  1.6223120009090692e-06 8.1718300098104684e-06 0.0000000000000000e+00  -1.2228327577528457e-07 1.1578314014744935e-05 0.0000000000000000e+00  -2.7811769759132313e-06 1.5467687030728579e-05 0.0000000000000000e+00  -6.4741427506840797e-06 1.9821282406340187e-05 0.0000000000000000e+00  -1.1316203565932377e-05 2.4617124751386520e-05 0.0000000000000000e+00  -1.7416810101638963e-05 2.9829685251317459e-05 0.0000000000000000e+00  -2.4878948030107161e-05 3.5429623912303727e-05 0.0000000000000000e+00  -3.3798170158853341e-05 4.1383528848651435e-05 0.0000000000000000e+00  -4.4261552294853726e-05 4.7653663461945592e-05 0.0000000000000000e+00  -5.6346574337630019e-05 5.4197733516446174e-05 0.0000000000000000e+00  -7.0119930723225619e-05 6.0968687276620871e-05 0.0000000000000000e+00  -8.5636276615864306e-05 6.7914562825042147e-05 0.0000000000000000e+00  -1.0293691772969614e-04 7.4978397398538148e-05 0.0000000000000000e+00  -1.2204845070015877e-04 8.2098213606178534e-05 0.0000000000000000e+00  -1.4298135466504972e-04 8.9207096610527021e-05 0.0000000000000000e+00  -1.6572851722252132e-04 9.6233374681691704e-05 0.0000000000000000e+00  -1.9026363705908827e-04 1.0310091233337893e-04 0.0000000000000000e+00  -2.1653935679877764e-04 1.0972952084613424e-04 0.0000000000000000e+00  -2.4448479360777563e-04 1.1603548543917232e-04 0.0000000000000000e+00  -2.7400175173311359e-04 1.2193220266235032e-04 0.0000000000000000e+00  -3.0495811877757776e-04 1.2733091843969031e-04 0.0000000000000000e+00  -3.3717536122572332e-04 1.3214156186959860e-04 0.0000000000000000e+00  -3.7040383565255393e-04 1.3627369204911546e-04 0.0000000000000000e+00  -4.0427322041633305e-04 1.3963763086901904e-04 0.0000000000000000e+00  -4.3819262235085852e-04 1.4214596441565000e-04 0.0000000000000000e+00  -4.7114983404388547e-04 1.4371577401396885e-04 0.0000000000000000e+00  -5.0131065578786112e-04 1.4427217653593404e-04 0.0000000000000000e+00  -5.2522730730681613e-04 1.4375385161623474e-04 0.0000000000000000e+00  -5.3629704477139095e-04 1.4212074935990518e-04 0.0000000000000000e+00  -5.2182179245183950e-04 1.3936214769479926e-04 0.0000000000000000e+00  -4.5756304557623503e-04 1.3549831275429033e-04 0.0000000000000000e+00  -2.9809148634059491e-04 1.3056088547951078e-04 0.0000000000000000e+00  3.9214297149184410e-05 1.2453121235793426e-04 0.0000000000000000e+00  6.9809791190906026e-04 1.1723330269857598e-04 0.0000000000000000e+00  1.9138997783538193e-03 1.0826591687942321e-04 0.0000000000000000e+00  0.0000000000000000e+00 -2.8112592950228973e-06 0.0000000000000000e+00  1.6577358048075226e-06 -2.4661140652955057e-06 0.0000000000000000e+00  3.1752743535662254e-06 -1.4506821080719284e-06 0.0000000000000000e+00  4.4210011567120634e-06 2.3222310843438811e-07 0.0000000000000000e+00  5.2638143334666183e-06 2.5763744511640717e-06 0.0000000000000000e+00  5.5726226172931056e-06 5.5726226180279456e-06 0.0000000000000000e+00  5.2176686131934915e-06 9.2087079005092369e-06 0.0000000000000000e+00  4.0714759082003726e-06 1.3469058311331832e-05 0.0000000000000000e+00  2.0095776947391633e-06 1.8334573345141476e-05 0.0000000000000000e+00  -1.0887865006690303e-06 2.3782369054311220e-05 0.0000000000000000e+00  -5.3399363798888741e-06 2.9785486155934937e-05 0.0000000000000000e+00  -1.0854952704015672e-05 3.6312570246412347e-05 0.0000000000000000e+00  -1.7738803689483174e-05 4.3327535105295354e-05 0.0000000000000000e+00  -2.6089389841287951e-05 5.0789221146306452e-05 0.0000000000000000e+00  -3.5996504347848599e-05 5.8651062221424727e-05 0.0000000000000000e+00  -4.7540708812205425e-05 6.6860775618173739e-05 0.0000000000000000e+00  -6.0792126769620873e-05 7.5360091741085455e-05 0.0000000000000000e+00  -7.5809159939338444e-05 8.4084541516087332e-05 0.0000000000000000e+00  -9.2637133845174135e-05 9.2963320949193638e-05 0.0000000000000000e+00  -1.1130687890848316e-04 1.0191925288963493e-04 0.0000000000000000e+00  -1.3183324750441918e-04 1.1086886601819038e-04 0.0000000000000000e+00  -1.5421355068209340e-04 1.1972261008877632e-04 0.0000000000000000e+00  -1.7842585814135093e-04 1.2838522403050287e-04 0.0000000000000000e+00  -2.0442701687630799e-04 1.3675627023251326e-04 0.0000000000000000e+00  -2.3215005769776397e-04 1.4473084397715686e-04 0.0000000000000000e+00  -2.6150027339314619e-04 1.5220046314706712e-04 0.0000000000000000e+00  -2.9234846430703878e-04 1.5905414204392458e-04 0.0000000000000000e+00  -3.2451824841171447e-04 1.6517965855509097e-04 0.0000000000000000e+00  -3.5776111085665833e-04 1.7046504238087408e-04 0.0000000000000000e+00  -3.9170641866251516e-04 1.7480035117038229e-04 0.0000000000000000e+00  -4.2576082564769140e-04 1.7807986546195483e-04 0.0000000000000000e+00  -4.5890637188108807e-04 1.8020491120312247e-04 0.0000000000000000e+00  -4.8929805851838945e-04 1.8108755393688922e-04 0.0000000000000000e+00  -5.1347007775880648e-04 1.8065525455070435e-04 0.0000000000000000e+00  -5.2479281625801945e-04 1.7885594498902123e-04 0.0000000000000000e+00  -5.1053420791961825e-04 1.7566148400628259e-04 0.0000000000000000e+00  -4.4642496118911605e-04 1.7106493967782041e-04 0.0000000000000000e+00  -2.8703326206499965e-04 1.6506470870882920e-04 0.0000000000000000e+00  5.0198538575240154e-05 1.5763021126669597e-04 0.0000000000000000e+00  7.0886561074208563e-04 1.4865827533098823e-04 0.0000000000000000e+00  1.9241753765900187e-03 1.3796556918181218e-04 0.0000000000000000e+00  0.0000000000000000e+00 -4.8369052635093069e-06 0.0000000000000000e+00  2.3835047408538409e-06 -4.4246689455915031e-06 0.0000000000000000e+00  4.6279813134839606e-06 -3.2078464478551946e-06 0.0000000000000000e+00  6.6012284942220935e-06 -1.1897768540553163e-06 0.0000000000000000e+00  8.1718300085665768e-06 1.6223120003491375e-06 0.0000000000000000e+00  9.2087078986236976e-06 5.2176686123796072e-06 0.0000000000000000e+00  9.5819292650496313e-06 9.5819292645050213e-06 0.0000000000000000e+00  9.1635540612699578e-06 1.4696885124422889e-05 0.0000000000000000e+00  7.8283344824518646e-06 2.0540205209646581e-05 0.0000000000000000e+00  5.4543815756356029e-06 2.7085113125460536e-05 0.0000000000000000e+00  1.9238664677535154e-06 3.4300021176682437e-05 0.0000000000000000e+00  -2.8762129626769711e-06 4.2148130838348311e-05 0.0000000000000000e+00  -9.0531847870517808e-06 5.0587011143172609e-05 0.0000000000000000e+00  -1.6707766441594278e-05 5.9568168488806379e-05 0.0000000000000000e+00  -2.5933033753293004e-05 6.9036623176675621e-05 0.0000000000000000e+00  -3.6813293201380846e-05 7.8930510369504042e-05 0.0000000000000000e+00  -4.9422857760799619e-05 8.9180725376883718e-05 0.0000000000000000e+00  -6.3824729163691169e-05 9.9710635570459739e-05 0.0000000000000000e+00  -8.0069191341043374e-05 1.1043588319718059e-04 0.0000000000000000e+00  -9.8192319617150926e-05 1.2126430501951650e-04 0.0000000000000000e+00  -1.1821440513996679e-04 1.3209599541912944e-04 0.0000000000000000e+00  -1.4013827791534061e-04 1.4282353954586958e-04 0.0000000000000000e+00  -1.6394747230182255e-04 1.5333244163118274e-04 0.0000000000000000e+00  -1.8960409123416731e-04 1.6350177111043162e-04 0.0000000000000000e+00  -2.1704603886412631e-04 1.7320504572101476e-04 0.0000000000000000e+00  -2.4618290433801345e-04 1.8231136711037758e-04 0.0000000000000000e+00  -2.7688898705465864e-04 1.9068682235596492e-04 0.0000000000000000e+00  -3.0899034676091651e-04 1.9819616627387269e-04 0.0000000000000000e+00  -3.4223952634562316e-04 2.0470480747936137e-04 0.0000000000000000e+00  -3.7626512876527874e-04 2.1008113729969007e-04 0.0000000000000000e+00  -4.1047061693353038e-04 2.1419926058775893e-04 0.0000000000000000e+00  -4.4383160335751700e-04 2.1694219319202344e-04 0.0000000000000000e+00  -4.7449247799580144e-04 2.1820553565805528e-04 0.0000000000000000e+00  -4.9897190814010475e-04 2.1790143114616651e-04 0.0000000000000000e+00  -5.1062025138126762e-04 2.1596215493064605e-04 