<?xml version="1.0"?>
<VTKFile type="UnstructuredGrid"  version="0.1"  >
<UnstructuredGrid>
<Piece  NumberOfPoints="1681" NumberOfCells="3200">
<Points>
<DataArray  type="Float64"  NumberOfComponents="3"  format="ascii">0 0 0  0.5 0 0  1 0 0  1.5 0 0  2 0 0  2.5 0 0  3 0 0  3.5 0 0  4 0 0  4.5 0 0  5 0 0  5.5 0 0  6 0 0  6.5 0 0  7 0 0  7.5 0 0  8 0 0  8.5 0 0  9 0 0  9.5 0 0  10 0 0  10.5 0 0  11 0 0  11.5 0 0  12 0 0  12.5 0 0  13 0 0  13.5 0 0  14 0 0  14.5 0 0  15 0 0  15.5 0 0  16 0 0  16.5 0 0  17 0 0  17.5 0 0  18 0 0  18.5 0 0  19 0 0  19.5 0 0  20 0 0  0 0.5 0  0.5 0.5 0  1 0.5 0  1.5 0.5 0  2 0.5 0  2.5 0.5 0  3 0.5 0  3.5 0.5 0  4 0.5 0  4.5 0.5 0  5 0.5 0  5.5 0.5 0  6 0.5 0  6.5 0.5 0  7 0.5 0  7.5 0.5 0  8 0.5 0  8.5 0.5 0  9 0.5 0  9.5 0.5 0  10 0.5 0  10.5 0.5 0  11 0.5 0  11.5 0.5 0  12 0.5 0  12.5 0.5 0  13 0.5 0  13.5 0.5 0  14 0.5 0  14.5 0.5 0  15 0.5 0  15.5 0.5 0  16 0.5 0  16.5 0.5 0  17 0.5 0  17.5 0.5 0  18 0.5 0  18.5 0.5 0  19 0.5 0  19.5 0.5 0  20 0.5 0  0 1 0  0.5 1 0  1 1 0  1.5 1 0  2 1 0  2.5 1 0  3 1 0  3.5 1 0  4 1 0  4.5 1 0  5 1 0  5.5 1 0  6 1 0  6.5 1 0  7 1 0  7.5 1 0  8 1 0  8.5 1 0  9 1 0  9.5 1 0  10 1 0  10.5 1 0  11 1 0  11.5 1 0  12 1 0  12.5 1 0  13 1 0  13.5 1 0  14 1 0  14.5 1 0  15 1 0  15.5 1 0  16 1 0  16.5 1 0  17 1 0  17.5 1 0  18 1 0  18.5 1 0  19 1 0  19.5 1 0  20 1 0  0 1.5 0  0.5 1.5 0  1 1.5 0  1.5 1.5 0  2 1.5 0  2.5 1.5 0  3 1.5 0  3.5 1.5 0  4 1.5 0  4.5 1.5 0  5 1.5 0  5.5 1.5 0  6 1.5 0  6.5 1.5 0  7 1.5 0  7.5 1.5 0  8 1.5 0  8.5 1.5 0  9 1.5 0  9.5 1.5 0  10 1.5 0  10.5 1.5 0  11 1.5 0  11.5 1.5 0  12 1.5 0  12.5 1.5 0  13 1.5 0  13.5 1.5 0  14 1.5 0  14.5 1.5 0  15 1.5 0  15.5 1.5 0  16 1.5 0  16.5 1.5 0  17 1.5 0  17.5 1.5 0  18 1.5 0  18.5 1.5 0  19 1.5 0  19.5 1.5 0  20 1.5 0  0 2 0  0.5 2 0  1 2 0  1.5 2 0  2 2 0  2.5 2 0  3 2 0  3.5 2 0  4 2 0  4.5 2 0  5 2 0  5.5 2 0  6 2 0  6.5 2 0  7 2 0  7.5 2 0  8 2 0  8.5 2 0  9 2 0  9.5 2 0  10 2 0  10.5 2 0  11 2 0  11.5 2 0  12 2 0  12.5 2 0  13 2 0  13.5 2 0  14 2 0  14.5 2 0  15 2 0  15.5 2 0  16 2 0  16.5 2 0  17 2 0  17.5 2 0  18 2 0  18.5 2 0  19 2 0  19.5 2 0  20 2 0  0 2.5 0  0.5 2.5 0  1 2.5 0  1.5 2.5 0  2 2.5 0  2.5 2.5 0  3 2.5 0  3.5 2.5 0  4 2.5 0  4.5 2.5 0  5 2.5 0  5.5 2.5 0  6 2.5 0  6.5 2.5 0  7 2.5 0  7.5 2.5 0  8 2.5 0  8.5 2.5 0  9 2.5 0  9.5 2.5 0  10 2.5 0  10.5 2.5 0  11 2.5 0  11.5 2.5 0  12 2.5 0  12.5 2.5 0  13 2.5 0  13.5 2.5 0  14 2.5 0  14.5 2.5 0  15 2.5 0  15.5 2.5 0  16 2.5 0  16.5 2.5 0  17 2.5 0  17.5 2.5 0  18 2.5 0  18.5 2.5 0  19 2.5 0  19.5 2.5 0  20 2.5 0  0 3 0  0.5 3 0  1 3 0  1.5 3 0  2 3 0  2.5 3 0  3 3 0  3.5 3 0  4 3 0  4.5 3 0  5 3 0  5.5 3 0  6 3 0  6.5 3 0  7 3 0  7.5 3 0  8 3 0  8.5 3 0  9 3 0  9.5 3 0  10 3 0  10.5 3 0  11 3 0  11.5 3 0  12 3 0  12.5 3 0  13 3 0  13.5 3 0  14 3 0  14.5 3 0  15 3 0  15.5 3 0  16 3 0  16.5 3 0  17 3 0  17.5 3 0  18 3 0  18.5 3 0  19 3 0  19.5 3 0  20 3 0  0 3.5 0  0.5 3.5 0  1 3.5 0  1.5 3.5 0  2 3.5 0  2.5 3.5 0  3 3.5 0  3.5 3.5 0  4 3.5 0  4.5 3.5 0  5 3.5 0  5.5 3.5 0  6 3.5 0  6.5 3.5 0  7 3.5 0  7.5 3.5 0  8 3.5 0  8.5 3.5 0  9 3.5 0  9.5 3.5 0  10 3.5 0  10.5 3.5 0  11 3.5 0  11.5 3.5 0  12 3.5 0  12.5 3.5 0  13 3.5 0  13.5 3.5 0  14 3.5 0  14.5 3.5 0  15 3.5 0  15.5 3.5 0  16 3.5 0  16.5 3.5 0  17 3.5 0  17.5 3.5 0  18 3.5 0  18.5 3.5 0  19 3.5 0  19.5 3.5 0  20 3.5 0  0 4 0  0.5 4 0  1 4 0  1.5 4 0  2 4 0  2.5 4 0  3 4 0  3.5 4 0  4 4 0  4.5 4 0  5 4 0  5.5 4 0  6 4 0  6.5 4 0  7 4 0  7.5 4 0  8 4 0  8.5 4 0  9 4 0  9.5 4 0  10 4 0  10.5 4 0  11 4 0  11.5 4 0  12 4 0  12.5 4 0  13 4 0  13.5 4 0  14 4 0  14.5 4 0  15 4 0  15.5 4 0  16 4 0  16.5 4 0  17 4 0  17.5 4 0  18 4 0  18.5 4 0  19 4 0  19.5 4 0  20 4 0  0 4.5 0  0.5 4.5 0  1 4.5 0  1.5 4.5 0  2 4.5 0  2.5 4.5 0  3 4.5 0  3.5 4.5 0  4 4.5 0  4.5 4.5 0  5 4.5 0  5.5 4.5 0  6 4.5 0  6.5 4.5 0  7 4.5 0  7.5 4.5 0  8 4.5 0  8.5 4.5 0  9 4.5 0  9.5 4.5 0  10 4.5 0  10.5 4.5 0  11 4.5 0  11.5 4.5 0  12 4.5 0  12.5 4.5 0  13 4.5 0  13.5 4.5 0  14 4.5 0  14.5 4.5 0  15 4.5 0  15.5 4.5 0  16 4.5 0  16.5 4.5 0  17 4.5 0  17.5 4.5 0  18 4.5 0  18.5 4.5 0  19 4.5 0  19.5 4.5 0  20 4.5 0  0 5 0  0.5 5 0  1 5 0  1.5 5 0  2 5 0  2.5 5 0  3 5 0  3.5 5 0  4 5 0  4.5 5 0  5 5 0  5.5 5 0  6 5 0  6.5 5 0  7 5 0  7.5 5 0  8 5 0  8.5 5 0  9 5 0  9.5 5 0  10 5 0  10.5 5 0  11 5 0  11.5 5 0  12 5 0  12.5 5 0  13 5 0  13.5 5 0  14 5 0  14.5 5 0  15 5 0  15.5 5 0  16 5 0  16.5 5 0  17 5 0  17.5 5 0  18 5 0  18.5 5 0  19 5 0  19.5 5 0  20 5 0  0 5.5 0  0.5 5.5 0  1 5.5 0  1.5 5.5 0  2 5.5 0  2.5 5.5 0  3 5.5 0  3.5 5.5 0  4 5.5 0  4.5 5.5 0  5 5.5 0  5.5 5.5 0  6 5.5 0  6.5 5.5 0  7 5.5 0  7.5 5.5 0  8 5.5 0  8.5 5.5 0  9 5.5 0  9.5 5.5 0  10 5.5 0  10.5 5.5 0  11 5.5 0  11.5 5.5 0  12 5.5 0  12.5 5.5 0  13 5.5 0  13.5 5.5 0  14 5.5 0  14.5 5.5 0  15 5.5 0  15.5 5.5 0  16 5.5 0  16.5 5.5 0  17 5.5 0  17.5 5.5 0  18 5.5 0  18.5 5.5 0  19 5.5 0  19.5 5.5 0  20 5.5 0  0 6 0  0.5 6 0  1 6 0  1.5 6 0  2 6 0  2.5 6 0  3 6 0  3.5 6 0  4 6 0  4.5 6 0  5 6 0  5.5 6 0  6 6 0  6.5 6 0  7 6 0  7.5 6 0  8 6 0  8.5 6 0  9 6 0  9.5 6 0  10 6 0  10.5 6 0  11 6 0  11.5 6 0  12 6 0  12.5 6 0  13 6 0  13.5 6 0  14 6 0  14.5 6 0  15 6 0  15.5 6 0  16 6 0  16.5 6 0  17 6 0  17.5 6 0  18 6 0  18.5 6 0  19 6 0  19.5 6 0  20 6 0  0 6.5 0  0.5 6.5 0  1 6.5 0  1.5 6.5 0  2 6.5 0  2.5 6.5 0  3 6.5 0  3.5 6.5 0  4 6.5 0  4.5 6.5 0  5 6.5 0  5.5 6.5 0  6 6.5 0  6.5 6.5 0  7 6.5 0  7.5 6.5 0  8 6.5 0  8.5 6.5 0  9 6.5 0  9.5 6.5 0  10 6.5 0  10.5 6.5 0  11 6.5 0  11.5 6.5 0  12 6.5 0  12.5 6.5 0  13 6.5 0  13.5 6.5 0  14 6.5 0  14.5 6.5 0  15 6.5 0  15.5 6.5 0  16 6.5 0  16.5 6.5 0  17 6.5 0  17.5 6.5 0  18 6.5 0  18.5 6.5 0  19 6.5 0  19.5 6.5 0  20 6.5 0  0 7 0  0.5 7 0  1 7 0  1.5 7 0  2 7 0  2.5 7 0  3 7 0  3.5 7 0  4 7 0  4.5 7 0  5 7 0  5.5 7 0  6 7 0  6.5 7 0  7 7 0  7.5 7 0  8 7 0  8.5 7 0  9 7 0  9.5 7 0  10 7 0  10.5 7 0  11 7 0  11.5 7 0  12 7 0  12.5 7 0  13 7 0  13.5 7 0  14 7 0  14.5 7 0  15 7 0  15.5 7 0  16 7 0  16.5 7 0  17 7 0  17.5 7 0  18 7 0  18.5 7 0  19 7 0  19.5 7 0  20 7 0  0 7.5 0  0.5 7.5 0  1 7.5 0  1.5 7.5 0  2 7.5 0  2.5 7.5 0  3 7.5 0  3.5 7.5 0  4 7.5 0  4.5 7.5 0  5 7.5 0  5.5 7.5 0  6 7.5 0  6.5 7.5 0  7 7.5 0  7.5 7.5 0  8 7.5 0  8.5 7.5 0  9 7.5 0  9.5 7.5 0  10 7.5 0  10.5 7.5 0  11 7.5 0  11.5 7.5 0  12 7.5 0  12.5 7.5 0  13 7.5 0  13.5 7.5 0  14 7.5 0  14.5 7.5 0  15 7.5 0  15.5 7.5 0  16 7.5 0  16.5 7.5 0  17 7.5 0  17.5 7.5 0  18 7.5 0  18.5 7.5 0  19 7.5 0  19.5 7.5 0  20 7.5 0  0 8 0  0.5 8 0  1 8 0  1.5 8 0  2 8 0  2.5 8 0  3 8 0  3.5 8 0  4 8 0  4.5 8 0  5 8 0  5.5 8 0  6 8 0  6.5 8 0  7 8 0  7.5 8 0  8 8 0  8.5 8 0  9 8 0  9.5 8 0  10 8 0  10.5 8 0  11 8 0  11.5 8 0  12 8 0  12.5 8 0  13 8 0  13.5 8 0  14 8 0  14.5 8 0  15 8 0  15.5 8 0  16 8 0  16.5 8 0  17 8 0  17.5 8 0  18 8 0  18.5 8 0  19 8 0  19.5 8 0  20 8 0  0 8.5 0  0.5 8.5 0  1 8.5 0  1.5 8.5 0  2 8.5 0  2.5 8.5 0  3 8.5 0  3.5 8.5 0  4 8.5 0  4.5 8.5 0  5 8.5 0  5.5 8.5 0  6 8.5 0  6.5 8.5 0  7 8.5 0  7.5 8.5 0  8 8.5 0  8.5 8.5 0  9 8.5 0  9.5 8.5 0  10 8.5 0  10.5 8.5 0  11 8.5 0  11.5 8.5 0  12 8.5 0  12.5 8.5 0  13 8.5 0  13.5 8.5 0  14 8.5 0  14.5 8.5 0  15 8.5 0  15.5 8.5 0  16 8.5 0  16.5 8.5 0  17 8.5 0  17.5 8.5 0  18 8.5 0  18.5 8.5 0  19 8.5 0  19.5 8.5 0  20 8.5 0  0 9 0  0.5 9 0  1 9 0  1.5 9 0  2 9 0  2.5 9 0  3 9 0  3.5 9 0  4 9 0  4.5 9 0  5 9 0  5.5 9 0  6 9 0  6.5 9 0  7 9 0  7.5 9 0  8 9 0  8.5 9 0  9 9 0  9.5 9 0  10 9 0  10.5 9 0  11 9 0  11.5 9 0  12 9 0  12.5 9 0  13 9 0  13.5 9 0  14 9 0  14.5 9 0  15 9 0  15.5 9 0  16 9 0  16.5 9 0  17 9 0  17.5 9 0  18 9 0  18.5 9 0  19 9 0  19.5 9 0  20 9 0  0 9.5 0  0.5 9.5 0  1 9.5 0  1.5 9.5 0  2 9.5 0  2.5 9.5 0  3 9.5 0  3.5 9.5 0  4 9.5 0  4.5 9.5 0  5 9.5 0  5.5 9.5 0  6 9.5 0  6.5 9.5 0  7 9.5 0  7.5 9.5 0  8 9.5 0  8.5 9.5 0  9 9.5 0  9.5 9.5 0  10 9.5 0  10.5 9.5 0  11 9.5 0  11.5 9.5 0  12 9.5 0  12.5 9.5 0  13 9.5 0  13.5 9.5 0  14 9.5 0  14.5 9.5 0  15 9.5 0  15.5 9.5 0  16 9.5 0  16.5 9.5 0  17 9.5 0  17.5 9.5 0  18 9.5 0  18.5 9.5 0  19 9.5 0  19.5 9.5 0  20 9.5 0  0 10 0  0.5 10 0  1 10 0  1.5 10 0  2 10 0  2.5 10 0  3 10 0  3.5 10 0  4 10 0  4.5 10 0  5 10 0  5.5 10 0  6 10 0  6.5 10 0  7 10 0  7.5 10 0  8 10 0  8.5 10 0  9 10 0  9.5 10 0  10 10 0  10.5 10 0  11 10 0  11.5 10 0  12 10 0  12.5 10 0  13 10 0  13.5 10 0  14 10 0  14.5 10 0  15 10 0  15.5 10 0  16 10 0  16.5 10 0  17 10 0  17.5 10 0  18 10 0  18.5 10 0  19 10 0  19.5 10 0  20 10 0  0 10.5 0  0.5 10.5 0  1 10.5 0  1.5 10.5 0  2 10.5 0  2.5 10.5 0  3 10.5 0  3.5 10.5 0  4 10.5 0  4.5 10.5 0  5 10.5 0  5.5 10.5 0  6 10.5 0  6.5 10.5 0  7 10.5 0  7.5 10.5 0  8 10.5 0  8.5 10.5 0  9 10.5 0  9.5 10.5 0  10 10.5 0  10.5 10.5 0  11 10.5 0  11.5 10.5 0  12 10.5 0  12.5 10.5 0  13 10.5 0  13.5 10.5 0  14 10.5 0  14.5 10.5 0  15 10.5 0  15.5 10.5 0  16 10.5 0  16.5 10.5 0  17 10.5 0  17.5 10.5 0  18 10.5 0  18.5 10.5 0  19 10.5 0  19.5 10.5 0  20 10.5 0  0 11 0  0.5 11 0  1 11 0  1.5 11 0  2 11 0  2.5 11 0  3 11 0  3.5 11 0  4 11 0  4.5 11 0  5 11 0  5.5 11 0  6 11 0  6.5 11 0  7 11 0  7.5 11 0  8 11 0  8.5 11 0  9 11 0  9.5 11 0  10 11 0  10.5 11 0  11 11 0  11.5 11 0  12 11 0  12.5 11 0  13 11 0  13.5 11 0  14 11 0  14.5 11 0  15 11 0  15.5 11 0  16 11 0  16.5 11 0  17 11 0  17.5 11 0  18 11 0  18.5 11 0  19 11 0  19.5 11 0  20 11 0  0 11.5 0  0.5 11.5 0  1 11.5 0  1.5 11.5 0  2 11.5 0  2.5 11.5 0  3 11.5 0  3.5 11.5 0  4 11.5 0  4.5 11.5 0  5 11.5 0  5.5 11.5 0  6 11.5 0  6.5 11.5 0  7 11.5 0  7.5 11.5 0  8 11.5 0  8.5 11.5 0  9 11.5 0  9.5 11.5 0  10 11.5 0  10.5 11.5 0  11 11.5 0  11.5 11.5 0  12 11.5 0  12.5 11.5 0  13 11.5 0  13.5 11.5 0  14 11.5 0  14.5 11.5 0  15 11.5 0  15.5 11.5 0  16 11.5 0  16.5 11.5 0  17 11.5 0  17.5 11.5 0  18 11.5 0  18.5 11.5 0  19 11.5 0  19.5 11.5 0  20 11.5 0  0 12 0  0.5 12 0  1 12 0  1.5 12 0  2 12 0  2.5 12 0  3 12 0  3.5 12 0  4 12 0  4.5 12 0  5 12 0  5.5 12 0  6 12 0  6.5 12 0  7 12 0  7.5 12 0  8 12 0  8.5 12 0  9 12 0  9.5 12 0  10 12 0  10.5 12 0  11 12 0  11.5 12 0  12 12 0  12.5 12 0  13 12 0  13.5 12 0  14 12 0  14.5 12 0  
[...]
<PointData  Vectors="f_2975-0"> 
<DataArray  type="Float64"  Name="f_2975-0"  NumberOfComponents="3" format="ascii">0.0000000000000000e+00 0.0000000000000000e+00 0.0000000000000000e+00  -1.2393793664676044e-06 0.0000000000000000e+00 0.0000000000000000e+00  -6.3515851384351509e-06 0.0000000000000000e+00 0.0000000000000000e+00  -2.1028308770088280e-05 0.0000000000000000e+00 0.0000000000000000e+00  -5.0036517783537448e-05 0.0000000000000000e+00 0.0000000000000000e+00  -9.7996462266804440e-05 0.0000000000000000e+00 0.0000000000000000e+00  -1.6940405615052187e-04 0.0000000000000000e+00 0.0000000000000000e+00  -2.6859119147452449e-04 0.0000000000000000e+00 0.0000000000000000e+00  -3.9967667982255568e-04 0.0000000000000000e+00 0.0000000000000000e+00  -5.6650855860892937e-04 0.0000000000000000e+00 0.0000000000000000e+00  -7.7259482053243836e-04 0.0000000000000000e+00 0.0000000000000000e+00  -1.0210191573391777e-03 0.0000000000000000e+00 0.0000000000000000e+00  -1.3143377183269345e-03 0.0000000000000000e+00 0.0000000000000000e+00  -1.6544520725375721e-03 0.0000000000000000e+00 0.0000000000000000e+00  -2.0424525799341434e-03 0.0000000000000000e+00 0.0000000000000000e+00  -2.4784252412823945e-03 0.0000000000000000e+00 0.0000000000000000e+00  -2.9612138188452580e-03 0.0000000000000000e+00 0.0000000000000000e+00  -3.4881276169763005e-03 0.0000000000000000e+00 0.0000000000000000e+00  -4.0545838077550795e-03 0.0000000000000000e+00 0.0000000000000000e+00  -4.6536716154601697e-03 0.0000000000000000e+00 0.0000000000000000e+00  -5.2756240747820681e-03 0.0000000000000000e+00 0.0000000000000000e+00  -5.9071814893317210e-03 0.0000000000000000e+00 0.0000000000000000e+00  -6.5308291657874161e-03 0.0000000000000000e+00 0.0000000000000000e+00  -7.1238904829439582e-03 0.0000000000000000e+00 0.0000000000000000e+00  -7.6574548193071015e-03 0.0000000000000000e+00 0.0000000000000000e+00  -8.0951181727898884e-03 0.0000000000000000e+00 0.0000000000000000e+00  -8.3915122089973752e-03 0.0000000000000000e+00 0.0000000000000000e+00  -8.4905945579537689e-03 0.0000000000000000e+00 0.0000000000000000e+00  -8.3236688186635946e-03 0.0000000000000000e+00 0.0000000000000000e+00  -7.8070960289518924e-03 0.0000000000000000e+00 0.0000000000000000e+00  -6.8396490552459768e-03 0.0000000000000000e+00 0.0000000000000000e+00  -5.2994457028521270e-03 0.0000000000000000e+00 0.0000000000000000e+00  -3.0403728781480499e-03 0.0000000000000000e+00 0.0000000000000000e+00  1.1212072464693937e-04 0.0000000000000000e+00 0.0000000000000000e+00  4.3660376374077122e-03 0.0000000000000000e+00 0.0000000000000000e+00  9.9689020626307565e-03 0.0000000000000000e+00 0.0000000000000000e+00  1.7215259563085734e-02 0.0000000000000000e+00 0.0000000000000000e+00  2.6456180226507153e-02 0.0000000000000000e+00 0.0000000000000000e+00  3.8111762343424137e-02 0.0000000000000000e+00 0.0000000000000000e+00  5.2688976188463174e-02 0.0000000000000000e+00 0.0000000000000000e+00  7.0812691877735728e-02 0.0000000000000000e+00 0.0000000000000000e+00  0.0000000000000000e+00 -1.2393793721892016e-06 0.0000000000000000e+00  2.0287038580028553e-06 2.0287038560855564e-06 0.0000000000000000e+00  -9.1657221789708778e-07 9.7671718352044397e-06 0.0000000000000000e+00  -1.3294847117581189e-05 2.2035301580596963e-05 0.0000000000000000e+00  -3.9920306088951715e-05 3.8976042393697562e-05 0.0000000000000000e+00  -8.5466219199548308e-05 6.0598891958727701e-05 0.0000000000000000e+00  -1.5445072932328469e-04 8.6837954533973370e-05 0.0000000000000000e+00  -2.5121588264580047e-04 1.1758507718787082e-04 0.0000000000000000e+00  -3.7988687866576717e-04 1.5270097518171459e-04 0.0000000000000000e+00  -5.4431738086068869e-04 1.9201772965844323e-04 0.0000000000000000e+00  -7.4802139423838713e-04 2.3533829792955592e-04 0.0000000000000000e+00  -9.9408950745750752e-04 2.8243497886359215e-04 0.0000000000000000e+00  -1.2850858958344063e-03 3.3304749832379282e-04 0.0000000000000000e+00  -1.6229214081496103e-03 3.8688097631133569e-04 0.0000000000000000e+00  -2.0086969905078467e-03 4.4360391616110628e-04 0.0000000000000000e+00  -2.4425105333552156e-03 5.0284632223283584e-04 0.0000000000000000e+00  -2.9232189379422391e-03 5.6419804708878428e-04 0.0000000000000000e+00  -3.4481457900029750e-03 6.2720747319036305e-04 0.0000000000000000e+00  -4.0127235217678392e-03 6.9138064065643633e-04 0.0000000000000000e+00  -4.6100573713431323e-03 7.5618093913927520e-04 0.0000000000000000e+00  -5.2303968491316539e-03 8.2102948631217990e-04 0.0000000000000000e+00  -5.8604988330292632e-03 8.8530631670141193e-04 0.0000000000000000e+00  -6.4828648637794166e-03 9.4835250144313210e-04 0.0000000000000000e+00  -7.0748336965130998e-03 1.0094733105678556e-03 0.0000000000000000e+00  -7.6075086296355744e-03 1.0679425130591118e-03 0.0000000000000000e+00  -8.0444974427040326e-03 1.1230078851435425e-03 0.0000000000000000e+00  -8.3404406768167582e-03 1.1738979622584872e-03 0.0000000000000000e+00  -8.4393010708769586e-03 1.2198300231374482e-03 0.0000000000000000e+00  -8.2723825987176276e-03 1.2600192349359501e-03 0.0000000000000000e+00  -7.7560408348745502e-03 1.2936888158594727e-03 0.0000000000000000e+00  -6.7890360499320854e-03 1.3200809880244133e-03 0.0000000000000000e+00  -5.2494647531586471e-03 1.3384684026446615e-03 0.0000000000000000e+00  -2.9911819189117391e-03 1.3481656246451513e-03 0.0000000000000000e+00  1.6040863593333975e-04 1.3485401569588522e-03 0.0000000000000000e+00  4.4133694814759003e-03 1.3390223252875398e-03 0.0000000000000000e+00  1.0015299800423623e-02 1.3191130590886346e-03 0.0000000000000000e+00  1.7260822723370071e-02 1.2883883304586345e-03 0.0000000000000000e+00  2.6501022118416394e-02 1.2465004921038837e-03 0.0000000000000000e+00  3.8155615174160835e-02 1.1931884119432223e-03 0.0000000000000000e+00  5.2728922019878083e-02 1.1283553038813308e-03 0.0000000000000000e+00  7.0829766481288761e-02 1.0523221514587098e-03 0.0000000000000000e+00  0.0000000000000000e+00 -6.3515851468673706e-06 0.0000000000000000e+00  9.7671718351848241e-06 -9.1657221763830884e-07 0.0000000000000000e+00  1.4178007189529129e-05 1.4178007190298499e-05 0.0000000000000000e+00  9.0449193061704018e-06 3.8750613391695848e-05 0.0000000000000000e+00  -1.0339224574392372e-05 7.2758586079714596e-05 0.0000000000000000e+00  -4.8628498366054170e-05 1.1611611451319007e-04 0.0000000000000000e+00  -1.1034856994473322e-04 1.6867735833657105e-04 0.0000000000000000e+00  -1.9985403145708345e-04 2.3023427685167221e-04 0.0000000000000000e+00  -3.2128366071288795e-04 3.0051857264042049e-04 0.0000000000000000e+00  -4.7850594505800521e-04 3.7920268969354650e-04 0.0000000000000000e+00  -6.7505178309450718e-04 4.6589889350468795e-04 0.0000000000000000e+00  -9.1403142832874556e-04 5.6015686651873504e-04 0.0000000000000000e+00  -1.1980319818178022e-03 6.6146040842387220e-04 0.0000000000000000e+00  -1.5289907838645432e-03 7.6922369862697190e-04 0.0000000000000000e+00  -1.9080389877341871e-03 8.8278745536616080e-04 0.0000000000000000e+00  -2.3353084163017664e-03 1.0014152564936291e-03 0.0000000000000000e+00  -2.8096935003976229e-03 1.1242902582789562e-03 0.0000000000000000e+00  -3.3285586813973805e-03 1.2505125429458355e-03 0.0000000000000000e+00  -3.8873801503755551e-03 1.3790973306370081e-03 0.0000000000000000e+00  -4.4793092228301067e-03 1.5089743001305931e-03 0.0000000000000000e+00  -5.0946430496244801e-03 1.6389882698332747e-03 0.0000000000000000e+00  -5.7201867797997026e-03 1.7679014925442260e-03 0.0000000000000000e+00  -6.3384897444395396e-03 1.8943978124453681e-03 0.0000000000000000e+00  -6.9269367211442882e-03 2.0170889159724530e-03 0.0000000000000000e+00  -7.4566738103334302e-03 2.1345228788838037e-03 0.0000000000000000e+00  -7.8913467724793813e-03 2.2451951657404164e-03 0.0000000000000000e+00  -8.1856275850185969e-03 2.3475621735658510e-03 0.0000000000000000e+00  -8.2835020649553396e-03 2.4400573254236111e-03 0.0000000000000000e+00  -8.1162870415729341e-03 2.5211096117592241e-03 0.0000000000000000e+00  -7.6003388531220772e-03 2.5891643460164830e-03 0.0000000000000000e+00  -6.6344046255676931e-03 2.6427057483198093e-03 0.0000000000000000e+00  -5.0965521384749154e-03 2.6802807976675012e-03 0.0000000000000000e+00  -2.8405906938938187e-03 2.7005235959763527e-03 0.0000000000000000e+00  3.0813910422793956e-04 2.7021792488137733e-03 0.0000000000000000e+00  4.5577792823453924e-03 2.6841259351190931e-03 0.0000000000000000e+00  1.0156018632896873e-02 2.6453932804757119e-03 0.0000000000000000e+00  1.7397561955299189e-02 2.5851738756623036e-03 0.0000000000000000e+00  2.6633519381262700e-02 2.5028201219713278e-03 0.0000000000000000e+00  3.8283465226308967e-02 2.3977958132363098e-03 0.0000000000000000e+00  5.2851231301024884e-02 2.2694401948421469e-03 0.0000000000000000e+00  7.0945893830157800e-02 2.1158891153847718e-03 0.0000000000000000e+00  0.0000000000000000e+00 -2.1028308779221782e-05 0.0000000000000000e+00  2.2035301586617853e-05 -1.3294847117368690e-05 0.0000000000000000e+00  3.8750613395475533e-05 9.0449193022167383e-06 0.0000000000000000e+00  4.5790955234374605e-05 4.5790955225598165e-05 0.0000000000000000e+00  3.8537734757798116e-05 9.6795226707061365e-05 0.0000000000000000e+00  1.2364072044473559e-05 1.6187612810363106e-04 0.0000000000000000e+00  -3.7251054695184552e-05 2.4078475200734162e-04 0.0000000000000000e+00  -1.1466928032019532e-04 3.3319716610058758e-04 0.0000000000000000e+00  -2.2404384420565739e-04 4.3871015763642061e-04 0.0000000000000000e+00  -3.6926348580145483e-04 5.5683708575469070e-04 0.0000000000000000e+00  -5.5388478608160339e-04 6.8700334785297423e-04 0.0000000000000000e+00  -7.8104926475647761e-04 8.2854131658136011e-04 0.0000000000000000e+00  -1.0533811686270623e-03 9.8068479834701383e-04 0.0000000000000000e+00  -1.3728611265350231e-03 1.1425631993692959e-03 0.0000000000000000e+00  -1.7406698695378159e-03 1.3131956572839372e-03 0.0000000000000000e+00  -2.1569950716239595e-03 1.4914854319760685e-03 0.0000000000000000e+00  -2.6207930793420704e-03 1.6762148705859990e-03 0.0000000000000000e+00  -3.1294958882571527e-03 1.8660412802468350e-03 0.0000000000000000e+00  -3.6786522163061741e-03 2.0594940606443015e-03 0.0000000000000000e+00  -4.2614899533082807e-03 2.2549734659027911e-03 0.0000000000000000e+00  -4.8683856714027722e-03 2.4507513784229008e-03 0.0000000000000000e+00  -5.4862253013162081e-03 2.6449744829288150e-03 0.0000000000000000e+00  -6.0976385410170079e-03 2.8356702229427630e-03 0.0000000000000000e+00  -6.6800880631104446e-03 3.0207559004585003e-03 0.0000000000000000e+00  -7.2047930715112788e-03 3.1980512381589933e-03 0.0000000000000000e+00  -7.6354650894303816e-03 3.3652946583758048e-03 0.0000000000000000e+00  -7.9268317862335354e-03 3.5201634393873405e-03 0.0000000000000000e+00  -8.0229217543509694e-03 3.6602977837098477e-03 0.0000000000000000e+00  -7.8550788033347873e-03 3.7833286713889547e-03 0.0000000000000000e+00  -7.3396676461320656e-03 3.8869091694562355e-03 0.0000000000000000e+00  -6.3754225607004691e-03 3.9687486232615095e-03 0.0000000000000000e+00  -4.8403749976718242e-03 4.0266488562264542e-03 0.0000000000000000e+00  -2.5882728007045369e-03 4.0585411293746539e-03 0.0000000000000000e+00  5.5563061559044591e-04 4.0625220943078747e-03 0.0000000000000000e+00  4.7995889233501017e-03 4.0368861296358402e-03 0.0000000000000000e+00  1.0391422254832092e-02 3.9801497401092826e-03 0.0000000000000000e+00  1.7625974994945240e-02 3.8910594763512186e-03 0.0000000000000000e+00  2.6854480112164937e-02 3.7685632246051751e-03 0.0000000000000000e+00  3.8496563601979131e-02 3.6116932271774583e-03 0.0000000000000000e+00  5.3055926311370953e-02 3.4192373198531027e-03 0.0000000000000000e+00  7.1141113364538627e-02 3.1889860798225709e-03 0.0000000000000000e+00  0.0000000000000000e+00 -5.0036517795014446e-05 0.0000000000000000e+00  3.8976042388253085e-05 -3.9920306093010419e-05 0.0000000000000000e+00  7.2758586080599196e-05 -1.0339224574516807e-05 0.0000000000000000e+00  9.6795226708329014e-05 3.8537734752018519e-05 0.0000000000000000e+00  1.0649685434810199e-04 1.0649685434932869e-04 0.0000000000000000e+00  9.7256917896650335e-05 1.9327500839798822e-04 0.0000000000000000e+00  6.4557455222932631e-05 2.9852828240630732e-04 0.0000000000000000e+00  4.0286767241707779e-06 4.2182014525574195e-04 0.0000000000000000e+00  -8.8499570382769805e-05 5.6261413831615434e-04 0.0000000000000000e+00  -2.1694109519440643e-04 7.2026704088236913e-04 0.0000000000000000e+00  -3.8488571380098670e-04 8.9402158670470820e-04 0.0000000000000000e+00  -5.9551658144040237e-04 1.0829986609830096e-03 0.0000000000000000e+00  -8.5150827708754069e-04 1.2861891144465873e-03 0.0000000000000000e+00  -1.1549007108109471e-03 1.5024454037460991e-03 0.0000000000000000e+00  -1.5069429736854810e-03 1.7304733226064877e-03 0.0000000000000000e+00  -1.9079001233386814e-03 1.9688241418313432e-03 0.0000000000000000e+00  -2.3568146220179528e-03 2.2158875259516144e-03 0.0000000000000000e+00  -2.8512127408016064e-03 2.4698856392159274e-03 0.0000000000000000e+00  -3.3867447414463372e-03 2.7288688935801428e-03 0.0000000000000000e+00  -3.9567460819181170e-03 2.9907138250837594e-03 0.0000000000000000e+00  -4.5517053036562716e-03 3.2531236097588273e-03 0.0000000000000000e+00  -5.1586226872810635e-03 3.5136317442279450e-03 0.0000000000000000e+00  -5.7602422364261066e-03 3.7696094130071300e-03 0.0000000000000000e+00  -6.3341380634396472e-03 4.0182770414444310e-03 0.0000000000000000e+00  -6.8516347524228312e-03 4.2567204828940731e-03 0.0000000000000000e+00  -7.2765396275657687e-03 4.4819122063332944e-03 0.0000000000000000e+00  -7.5636628040061677e-03 4.6907377291317293e-03 0.0000000000000000e+00  -7.6570980288526644e-03 4.8800273730161443e-03 0.0000000000000000e+00  -7.4882330047987720e-03 5.0465932020810518e-03 0.0000000000000000e+00  -6.9734512284465224e-03 5.1872707219608981e-03 0.0000000000000000e+00  -6.0114771209633100e-03 5.2989645681886157e-03 0.0000000000000000e+00  -4.4803006683824410e-03 5.3786969685788825e-03 0.0000000000000000e+00  -2.2335945742698207e-03 5.4236571881389741e-03 0.0000000000000000e+00  9.0349721714356687e-04 5.4312493525537579e-03 0.0000000000000000e+00  5.1393705318354887e-03 5.3991347524673990e-03 0.0000000000000000e+00  1.0722014661280806e-02 5.3252623763870395e-03 0.0000000000000000e+00  1.7946456735375645e-02 5.2078767944234352e-03 0.0000000000000000e+00  2.7164096600559014e-02 5.0454837714110972e-03 0.0000000000000000e+00  3.8794649447065538e-02 4.8367414924051881e-03 0.0000000000000000e+00  5.3341718532804762e-02 4.5802466340616873e-03 0.0000000000000000e+00  7.1413457482186554e-02 4.2742839693688597e-03 0.0000000000000000e+00  0.0000000000000000e+00 -9.7996462276162853e-05 0.0000000000000000e+00  6.0598891958651007e-05 -8.5466219206506447e-05 0.0000000000000000e+00  1.1611611451824402e-04 -4.8628498372385802e-05 0.0000000000000000e+00  1.6187612810868678e-04 1.2364072039152706e-05 0.0000000000000000e+00  1.9327500840139776e-04 9.7256917899285922e-05 0.0000000000000000e+00  2.0571712393736903e-04 2.0571712393911235e-04 0.0000000000000000e+00  1.9468509053209961e-04 3.3731436072861800e-04 0.0000000000000000e+00  1.5579878873088878e-04 4.9150728065144205e-04 0.0000000000000000e+00  8.4867753397511883e-05 6.6763373575168727e-04 0.0000000000000000e+00  -2.2052034459304112e-05 8.6490157647940377e-04 0.0000000000000000e+00  -1.6859089985683839e-04 1.0823789861395515e-03 0.0000000000000000e+00  -3.5798335307290525e-04 1.3189841875514943e-03 0.0000000000000000e+00  -5.9296669283200054e-04 1.5734746624399792e-03 0.0000000000000000e+00  -8.7565531142420471e-04 1.8444361448807288e-03 0.0000000000000000e+00  -1.2073847566211604e-03 2.1302717186367842e-03 0.0000000000000000e+00  -1.5885184864123307e-03 2.4291914052243140e-03 0.0000000000000000e+00  -2.0182089785289016e-03 2.7392026867514253e-03 0.0000000000000000e+00  -2.4941034554122189e-03 3.0581024636810858e-03 0.0000000000000000e+00  -3.0119829859155327e-03 3.3834710022500334e-03 0.0000000000000000e+00  -3.5653221642401667e-03 3.7126684744800530e-03 0.0000000000000000e+00  -4.1447549858061195e-03 4.0428347321359911e-03 0.0000000000000000e+00  -4.7374309789657973e-03 4.3708929809174978e-03 0.0000000000000000e+00  -5.3262441382721437e-03 4.6935580252778653e-03 0.0000000000000000e+00  -5.8889157377300608e-03 5.0073497332812772e-03 0.0000000000000000e+00  -6.3969106271686916e-03 5.3086123162007365e-03 0.0000000000000000e+00  -6.8141649955142762e-03 5.5935399218250961e-03 0.0000000000000000e+00  -7.0956015669882350e-03 5.8582088949297060e-03 0.0000000000000000e+00  -7.1854053647999938e-03 6.0986168541264200e-03 0.0000000000000000e+00  -7.0150289043674824e-03 6.3107284603751510e-03 0.0000000000000000e+00  -6.5008890659403159e-03 6.4905273978447496e-03 0.0000000000000000e+00  -5.5417076978622939e-03 6.6340736366679708e-03 0.0000000000000000e+00  -4.0154325135888028e-03 6.7375644756290593e-03 0.0000000000000000e+00  -1.7756517428872752e-03 6.7973971297802067e-03 0.0000000000000000e+00  1.3526179417068414e-03 6.8102296503350169e-03 0.0000000000000000e+00  5.5779400519371906e-03 6.7730355874880974e-03 0.0000000000000000e+00  1.1148504716182287e-02 6.6831457897753525e-03 0.0000000000000000e+00  1.8359557559419541e-02 6.5382679374406186e-03 0.0000000000000000e+00  2.7562705951828682e-02 6.3364717866683648e-03 0.0000000000000000e+00  3.9177818198306326e-02 6.0761309840065645e-03 0.0000000000000000e+00  5.3708564841517037e-02 5.7558376769683934e-03 0.0000000000000000e+00  7.1763194168311020e-02 5.3743888113056979e-03 0.0000000000000000e+00  0.0000000000000000e+00 -1.6940405615982381e-04 0.0000000000000000e+00  8.6837954533809398e-05 -1.5445072932997257e-04 0.0000000000000000e+00  1.6867735833631917e-04 -1.1034856994808613e-04 0.0000000000000000e+00  2.4078475199972168e-04 -3.7251054695973695e-05 0.0000000000000000e+00  2.9852828239635473e-04 6.4557455220370349e-05 0.0000000000000000e+00  3.3731436072129953e-04 1.9468509053666516e-04 0.0000000000000000e+00  3.5262398278574747e-04 3.5262398278901975e-04 0.0000000000000000e+00  3.4006524553441720e-04 5.3773699320211932e-04 0.0000000000000000e+00  2.9542479026496655e-04 7.4924601359888327e-04 0.0000000000000000e+00  2.1472403048733999e-04 9.8622049050923945e-04 0.0000000000000000e+00  9.4285649825964844e-05 1.2475653638877578e-03 0.0000000000000000e+00  -6.9185097455460554e-05 1.5320082440786181e-03 0.0000000000000000e+00  -2.7849974632107176e-04 1.8380859620712780e-03 0.0000000000000000e+00  -5.3586152230519215e-04 2.1641307800166158e-03 0.0000000000000000e+00  -8.4270976534867427e-04 2.5082566417775959e-03 0.0000000000000000e+00  -1.1995267468502646e-03 2.8683459177205029e-03 0.0000000000000000e+00  -1.6055984793011692e-03 3.2420371685045885e-03 0.0000000000000000e+00  -2.0587197166364222e-03 3.6267145218422353e-03 0.0000000000000000e+00  -2.5548318454529950e-03 4.0194993243258511e-03 0.0000000000000000e+00  -3.0875808098825637e-03 4.4172447932538054e-03 0.0000000000000000e+00  -3.6477806389850192e-03 4.8165344463981120e-03 0.0000000000000000e+00  -4.2227665958976968e-03 5.2136851260517628e-03 0.0000000000000000e+00  -4.7956204708398276e-03 5.6047554488913394e-03 0.0000000000000000e+00  -5.3442490946653395e-03 5.9855604992490987e-03 0.0000000000000000e+00  -5.8402957026714832e-03 6.3516935297127384e-03 0.0000000000000000e+00  -6.2478621939728810e-03 6.6985553303623557e-03 0.0000000000000000e+00  -6.5220183566765330e-03 7.0213917651571166e-03 0.0000000000000000e+00  -6.6070713473514783e-03 7.3153397395262776e-03 0.0000000000000000e+00  -6.4345644982371948e-03 7.5754815436135927e-03 0.0000000000000000e+00  -5.9209679784731281e-03 7.7969070978188681e-03 0.0000000000000000e+00  -4.9650137107525886e-03 7.9747830951672413e-03 0.0000000000000000e+00  -3.4446115440744688e-03 8.1044273702966900e-03 0.0000000000000000e+00  -1.2132606962393638e-03 8.1813860063948019e-03 0.0000000000000000e+00  1.9041632853770980e-03 8.2015096963356862e-03 0.0000000000000000e+00  6.1164148705759140e-03 8.1610246988766989e-03 0.0000000000000000e+00  1.1671918