<?xml version="1.0"?>
<VTKFile type="UnstructuredGrid"  version="0.1"  >
<UnstructuredGrid>
<Piece  NumberOfPoints="1681" NumberOfCells="3200">
<Points>
<DataArray  type="Float64"  NumberOfComponents="3"  format="ascii">0 0 0  0.5 0 0  1 0 0  1.5 0 0  2 0 0  2.5 0 0  3 0 0  3.5 0 0  4 0 0  4.5 0 0  5 0 0  5.5 0 0  6 0 0  6.5 0 0  7 0 0  7.5 0 0  8 0 0  8.5 0 0  9 0 0  9.5 0 0  10 0 0  10.5 0 0  11 0 0  11.5 0 0  12 0 0  12.5 0 0  13 0 0  13.5 0 0  14 0 0  14.5 0 0  15 0 0  15.5 0 0  16 0 0  16.5 0 0  17 0 0  17.5 0 0  18 0 0  18.5 0 0  19 0 0  19.5 0 0  20 0 0  0 0.5 0  0.5 0.5 0  1 0.5 0  1.5 0.5 0  2 0.5 0  2.5 0.5 0  3 0.5 0  3.5 0.5 0  4 0.5 0  4.5 0.5 0  5 0.5 0  5.5 0.5 0  6 0.5 0  6.5 0.5 0  7 0.5 0  7.5 0.5 0  8 0.5 0  8.5 0.5 0  9 0.5 0  9.5 0.5 0  10 0.5 0  10.5 0.5 0  11 0.5 0  11.5 0.5 0  12 0.5 0  12.5 0.5 0  13 0.5 0  13.5 0.5 0  14 0.5 0  14.5 0.5 0  15 0.5 0  15.5 0.5 0  16 0.5 0  16.5 0.5 0  17 0.5 0  17.5 0.5 0  18 0.5 0  18.5 0.5 0  19 0.5 0  19.5 0.5 0  20 0.5 0  0 1 0  0.5 1 0  1 1 0  1.5 1 0  2 1 0  2.5 1 0  3 1 0  3.5 1 0  4 1 0  4.5 1 0  5 1 0  5.5 1 0  6 1 0  6.5 1 0  7 1 0  7.5 1 0  8 1 0  8.5 1 0  9 1 0  9.5 1 0  10 1 0  10.5 1 0  11 1 0  11.5 1 0  12 1 0  12.5 1 0  13 1 0  13.5 1 0  14 1 0  14.5 1 0  15 1 0  15.5 1 0  16 1 0  16.5 1 0  17 1 0  17.5 1 0  18 1 0  18.5 1 0  19 1 0  19.5 1 0  20 1 0  0 1.5 0  0.5 1.5 0  1 1.5 0  1.5 1.5 0  2 1.5 0  2.5 1.5 0  3 1.5 0  3.5 1.5 0  4 1.5 0  4.5 1.5 0  5 1.5 0  5.5 1.5 0  6 1.5 0  6.5 1.5 0  7 1.5 0  7.5 1.5 0  8 1.5 0  8.5 1.5 0  9 1.5 0  9.5 1.5 0  10 1.5 0  10.5 1.5 0  11 1.5 0  11.5 1.5 0  12 1.5 0  12.5 1.5 0  13 1.5 0  13.5 1.5 0  14 1.5 0  14.5 1.5 0  15 1.5 0  15.5 1.5 0  16 1.5 0  16.5 1.5 0  17 1.5 0  17.5 1.5 0  18 1.5 0  18.5 1.5 0  19 1.5 0  19.5 1.5 0  20 1.5 0  0 2 0  0.5 2 0  1 2 0  1.5 2 0  2 2 0  2.5 2 0  3 2 0  3.5 2 0  4 2 0  4.5 2 0  5 2 0  5.5 2 0  6 2 0  6.5 2 0  7 2 0  7.5 2 0  8 2 0  8.5 2 0  9 2 0  9.5 2 0  10 2 0  10.5 2 0  11 2 0  11.5 2 0  12 2 0  12.5 2 0  13 2 0  13.5 2 0  14 2 0  14.5 2 0  15 2 0  15.5 2 0  16 2 0  16.5 2 0  17 2 0  17.5 2 0  18 2 0  18.5 2 0  19 2 0  19.5 2 0  20 2 0  0 2.5 0  0.5 2.5 0  1 2.5 0  1.5 2.5 0  2 2.5 0  2.5 2.5 0  3 2.5 0  3.5 2.5 0  4 2.5 0  4.5 2.5 0  5 2.5 0  5.5 2.5 0  6 2.5 0  6.5 2.5 0  7 2.5 0  7.5 2.5 0  8 2.5 0  8.5 2.5 0  9 2.5 0  9.5 2.5 0  10 2.5 0  10.5 2.5 0  11 2.5 0  11.5 2.5 0  12 2.5 0  12.5 2.5 0  13 2.5 0  13.5 2.5 0  14 2.5 0  14.5 2.5 0  15 2.5 0  15.5 2.5 0  16 2.5 0  16.5 2.5 0  17 2.5 0  17.5 2.5 0  18 2.5 0  18.5 2.5 0  19 2.5 0  19.5 2.5 0  20 2.5 0  0 3 0  0.5 3 0  1 3 0  1.5 3 0  2 3 0  2.5 3 0  3 3 0  3.5 3 0  4 3 0  4.5 3 0  5 3 0  5.5 3 0  6 3 0  6.5 3 0  7 3 0  7.5 3 0  8 3 0  8.5 3 0  9 3 0  9.5 3 0  10 3 0  10.5 3 0  11 3 0  11.5 3 0  12 3 0  12.5 3 0  13 3 0  13.5 3 0  14 3 0  14.5 3 0  15 3 0  15.5 3 0  16 3 0  16.5 3 0  17 3 0  17.5 3 0  18 3 0  18.5 3 0  19 3 0  19.5 3 0  20 3 0  0 3.5 0  0.5 3.5 0  1 3.5 0  1.5 3.5 0  2 3.5 0  2.5 3.5 0  3 3.5 0  3.5 3.5 0  4 3.5 0  4.5 3.5 0  5 3.5 0  5.5 3.5 0  6 3.5 0  6.5 3.5 0  7 3.5 0  7.5 3.5 0  8 3.5 0  8.5 3.5 0  9 3.5 0  9.5 3.5 0  10 3.5 0  10.5 3.5 0  11 3.5 0  11.5 3.5 0  12 3.5 0  12.5 3.5 0  13 3.5 0  13.5 3.5 0  14 3.5 0  14.5 3.5 0  15 3.5 0  15.5 3.5 0  16 3.5 0  16.5 3.5 0  17 3.5 0  17.5 3.5 0  18 3.5 0  18.5 3.5 0  19 3.5 0  19.5 3.5 0  20 3.5 0  0 4 0  0.5 4 0  1 4 0  1.5 4 0  2 4 0  2.5 4 0  3 4 0  3.5 4 0  4 4 0  4.5 4 0  5 4 0  5.5 4 0  6 4 0  6.5 4 0  7 4 0  7.5 4 0  8 4 0  8.5 4 0  9 4 0  9.5 4 0  10 4 0  10.5 4 0  11 4 0  11.5 4 0  12 4 0  12.5 4 0  13 4 0  13.5 4 0  14 4 0  14.5 4 0  15 4 0  15.5 4 0  16 4 0  16.5 4 0  17 4 0  17.5 4 0  18 4 0  18.5 4 0  19 4 0  19.5 4 0  20 4 0  0 4.5 0  0.5 4.5 0  1 4.5 0  1.5 4.5 0  2 4.5 0  2.5 4.5 0  3 4.5 0  3.5 4.5 0  4 4.5 0  4.5 4.5 0  5 4.5 0  5.5 4.5 0  6 4.5 0  6.5 4.5 0  7 4.5 0  7.5 4.5 0  8 4.5 0  8.5 4.5 0  9 4.5 0  9.5 4.5 0  10 4.5 0  10.5 4.5 0  11 4.5 0  11.5 4.5 0  12 4.5 0  12.5 4.5 0  13 4.5 0  13.5 4.5 0  14 4.5 0  14.5 4.5 0  15 4.5 0  15.5 4.5 0  16 4.5 0  16.5 4.5 0  17 4.5 0  17.5 4.5 0  18 4.5 0  18.5 4.5 0  19 4.5 0  19.5 4.5 0  20 4.5 0  0 5 0  0.5 5 0  1 5 0  1.5 5 0  2 5 0  2.5 5 0  3 5 0  3.5 5 0  4 5 0  4.5 5 0  5 5 0  5.5 5 0  6 5 0  6.5 5 0  7 5 0  7.5 5 0  8 5 0  8.5 5 0  9 5 0  9.5 5 0  10 5 0  10.5 5 0  11 5 0  11.5 5 0  12 5 0  12.5 5 0  13 5 0  13.5 5 0  14 5 0  14.5 5 0  15 5 0  15.5 5 0  16 5 0  16.5 5 0  17 5 0  17.5 5 0  18 5 0  18.5 5 0  19 5 0  19.5 5 0  20 5 0  0 5.5 0  0.5 5.5 0  1 5.5 0  1.5 5.5 0  2 5.5 0  2.5 5.5 0  3 5.5 0  3.5 5.5 0  4 5.5 0  4.5 5.5 0  5 5.5 0  5.5 5.5 0  6 5.5 0  6.5 5.5 0  7 5.5 0  7.5 5.5 0  8 5.5 0  8.5 5.5 0  9 5.5 0  9.5 5.5 0  10 5.5 0  10.5 5.5 0  11 5.5 0  11.5 5.5 0  12 5.5 0  12.5 5.5 0  13 5.5 0  13.5 5.5 0  14 5.5 0  14.5 5.5 0  15 5.5 0  15.5 5.5 0  16 5.5 0  16.5 5.5 0  17 5.5 0  17.5 5.5 0  18 5.5 0  18.5 5.5 0  19 5.5 0  19.5 5.5 0  20 5.5 0  0 6 0  0.5 6 0  1 6 0  1.5 6 0  2 6 0  2.5 6 0  3 6 0  3.5 6 0  4 6 0  4.5 6 0  5 6 0  5.5 6 0  6 6 0  6.5 6 0  7 6 0  7.5 6 0  8 6 0  8.5 6 0  9 6 0  9.5 6 0  10 6 0  10.5 6 0  11 6 0  11.5 6 0  12 6 0  12.5 6 0  13 6 0  13.5 6 0  14 6 0  14.5 6 0  15 6 0  15.5 6 0  16 6 0  16.5 6 0  17 6 0  17.5 6 0  18 6 0  18.5 6 0  19 6 0  19.5 6 0  20 6 0  0 6.5 0  0.5 6.5 0  1 6.5 0  1.5 6.5 0  2 6.5 0  2.5 6.5 0  3 6.5 0  3.5 6.5 0  4 6.5 0  4.5 6.5 0  5 6.5 0  5.5 6.5 0  6 6.5 0  6.5 6.5 0  7 6.5 0  7.5 6.5 0  8 6.5 0  8.5 6.5 0  9 6.5 0  9.5 6.5 0  10 6.5 0  10.5 6.5 0  11 6.5 0  11.5 6.5 0  12 6.5 0  12.5 6.5 0  13 6.5 0  13.5 6.5 0  14 6.5 0  14.5 6.5 0  15 6.5 0  15.5 6.5 0  16 6.5 0  16.5 6.5 0  17 6.5 0  17.5 6.5 0  18 6.5 0  18.5 6.5 0  19 6.5 0  19.5 6.5 0  20 6.5 0  0 7 0  0.5 7 0  1 7 0  1.5 7 0  2 7 0  2.5 7 0  3 7 0  3.5 7 0  4 7 0  4.5 7 0  5 7 0  5.5 7 0  6 7 0  6.5 7 0  7 7 0  7.5 7 0  8 7 0  8.5 7 0  9 7 0  9.5 7 0  10 7 0  10.5 7 0  11 7 0  11.5 7 0  12 7 0  12.5 7 0  13 7 0  13.5 7 0  14 7 0  14.5 7 0  15 7 0  15.5 7 0  16 7 0  16.5 7 0  17 7 0  17.5 7 0  18 7 0  18.5 7 0  19 7 0  19.5 7 0  20 7 0  0 7.5 0  0.5 7.5 0  1 7.5 0  1.5 7.5 0  2 7.5 0  2.5 7.5 0  3 7.5 0  3.5 7.5 0  4 7.5 0  4.5 7.5 0  5 7.5 0  5.5 7.5 0  6 7.5 0  6.5 7.5 0  7 7.5 0  7.5 7.5 0  8 7.5 0  8.5 7.5 0  9 7.5 0  9.5 7.5 0  10 7.5 0  10.5 7.5 0  11 7.5 0  11.5 7.5 0  12 7.5 0  12.5 7.5 0  13 7.5 0  13.5 7.5 0  14 7.5 0  14.5 7.5 0  15 7.5 0  15.5 7.5 0  16 7.5 0  16.5 7.5 0  17 7.5 0  17.5 7.5 0  18 7.5 0  18.5 7.5 0  19 7.5 0  19.5 7.5 0  20 7.5 0  0 8 0  0.5 8 0  1 8 0  1.5 8 0  2 8 0  2.5 8 0  3 8 0  3.5 8 0  4 8 0  4.5 8 0  5 8 0  5.5 8 0  6 8 0  6.5 8 0  7 8 0  7.5 8 0  8 8 0  8.5 8 0  9 8 0  9.5 8 0  10 8 0  10.5 8 0  11 8 0  11.5 8 0  12 8 0  12.5 8 0  13 8 0  13.5 8 0  14 8 0  14.5 8 0  15 8 0  15.5 8 0  16 8 0  16.5 8 0  17 8 0  17.5 8 0  18 8 0  18.5 8 0  19 8 0  19.5 8 0  20 8 0  0 8.5 0  0.5 8.5 0  1 8.5 0  1.5 8.5 0  2 8.5 0  2.5 8.5 0  3 8.5 0  3.5 8.5 0  4 8.5 0  4.5 8.5 0  5 8.5 0  5.5 8.5 0  6 8.5 0  6.5 8.5 0  7 8.5 0  7.5 8.5 0  8 8.5 0  8.5 8.5 0  9 8.5 0  9.5 8.5 0  10 8.5 0  10.5 8.5 0  11 8.5 0  11.5 8.5 0  12 8.5 0  12.5 8.5 0  13 8.5 0  13.5 8.5 0  14 8.5 0  14.5 8.5 0  15 8.5 0  15.5 8.5 0  16 8.5 0  16.5 8.5 0  17 8.5 0  17.5 8.5 0  18 8.5 0  18.5 8.5 0  19 8.5 0  19.5 8.5 0  20 8.5 0  0 9 0  0.5 9 0  1 9 0  1.5 9 0  2 9 0  2.5 9 0  3 9 0  3.5 9 0  4 9 0  4.5 9 0  5 9 0  5.5 9 0  6 9 0  6.5 9 0  7 9 0  7.5 9 0  8 9 0  8.5 9 0  9 9 0  9.5 9 0  10 9 0  10.5 9 0  11 9 0  11.5 9 0  12 9 0  12.5 9 0  13 9 0  13.5 9 0  14 9 0  14.5 9 0  15 9 0  15.5 9 0  16 9 0  16.5 9 0  17 9 0  17.5 9 0  18 9 0  18.5 9 0  19 9 0  19.5 9 0  20 9 0  0 9.5 0  0.5 9.5 0  1 9.5 0  1.5 9.5 0  2 9.5 0  2.5 9.5 0  3 9.5 0  3.5 9.5 0  4 9.5 0  4.5 9.5 0  5 9.5 0  5.5 9.5 0  6 9.5 0  6.5 9.5 0  7 9.5 0  7.5 9.5 0  8 9.5 0  8.5 9.5 0  9 9.5 0  9.5 9.5 0  10 9.5 0  10.5 9.5 0  11 9.5 0  11.5 9.5 0  12 9.5 0  12.5 9.5 0  13 9.5 0  13.5 9.5 0  14 9.5 0  14.5 9.5 0  15 9.5 0  15.5 9.5 0  16 9.5 0  16.5 9.5 0  17 9.5 0  17.5 9.5 0  18 9.5 0  18.5 9.5 0  19 9.5 0  19.5 9.5 0  20 9.5 0  0 10 0  0.5 10 0  1 10 0  1.5 10 0  2 10 0  2.5 10 0  3 10 0  3.5 10 0  4 10 0  4.5 10 0  5 10 0  5.5 10 0  6 10 0  6.5 10 0  7 10 0  7.5 10 0  8 10 0  8.5 10 0  9 10 0  9.5 10 0  10 10 0  10.5 10 0  11 10 0  11.5 10 0  12 10 0  12.5 10 0  13 10 0  13.5 10 0  14 10 0  14.5 10 0  15 10 0  15.5 10 0  16 10 0  16.5 10 0  17 10 0  17.5 10 0  18 10 0  18.5 10 0  19 10 0  19.5 10 0  20 10 0  0 10.5 0  0.5 10.5 0  1 10.5 0  1.5 10.5 0  2 10.5 0  2.5 10.5 0  3 10.5 0  3.5 10.5 0  4 10.5 0  4.5 10.5 0  5 10.5 0  5.5 10.5 0  6 10.5 0  6.5 10.5 0  7 10.5 0  7.5 10.5 0  8 10.5 0  8.5 10.5 0  9 10.5 0  9.5 10.5 0  10 10.5 0  10.5 10.5 0  11 10.5 0  11.5 10.5 0  12 10.5 0  12.5 10.5 0  13 10.5 0  13.5 10.5 0  14 10.5 0  14.5 10.5 0  15 10.5 0  15.5 10.5 0  16 10.5 0  16.5 10.5 0  17 10.5 0  17.5 10.5 0  18 10.5 0  18.5 10.5 0  19 10.5 0  19.5 10.5 0  20 10.5 0  0 11 0  0.5 11 0  1 11 0  1.5 11 0  2 11 0  2.5 11 0  3 11 0  3.5 11 0  4 11 0  4.5 11 0  5 11 0  5.5 11 0  6 11 0  6.5 11 0  7 11 0  7.5 11 0  8 11 0  8.5 11 0  9 11 0  9.5 11 0  10 11 0  10.5 11 0  11 11 0  11.5 11 0  12 11 0  12.5 11 0  13 11 0  13.5 11 0  14 11 0  14.5 11 0  15 11 0  15.5 11 0  16 11 0  16.5 11 0  17 11 0  17.5 11 0  18 11 0  18.5 11 0  19 11 0  19.5 11 0  20 11 0  0 11.5 0  0.5 11.5 0  1 11.5 0  1.5 11.5 0  2 11.5 0  2.5 11.5 0  3 11.5 0  3.5 11.5 0  4 11.5 0  4.5 11.5 0  5 11.5 0  5.5 11.5 0  6 11.5 0  6.5 11.5 0  7 11.5 0  7.5 11.5 0  8 11.5 0  8.5 11.5 0  9 11.5 0  9.5 11.5 0  10 11.5 0  10.5 11.5 0  11 11.5 0  11.5 11.5 0  12 11.5 0  12.5 11.5 0  13 11.5 0  13.5 11.5 0  14 11.5 0  14.5 11.5 0  15 11.5 0  15.5 11.5 0  16 11.5 0  16.5 11.5 0  17 11.5 0  17.5 11.5 0  18 11.5 0  18.5 11.5 0  19 11.5 0  19.5 11.5 0  20 11.5 0  0 12 0  0.5 12 0  1 12 0  1.5 12 0  2 12 0  2.5 12 0  3 12 0  3.5 12 0  4 12 0  4.5 12 0  5 12 0  5.5 12 0  6 12 0  6.5 12 0  7 12 0  7.5 12 0  8 12 0  8.5 12 0  9 12 0  9.5 12 0  10 12 0  10.5 12 0  11 12 0  11.5 12 0  12 12 0  12.5 12 0  13 12 0  13.5 12 0  14 12 0  14.5 12 0  
[...]
<PointData  Vectors="f_4890-0"> 
<DataArray  type="Float64"  Name="f_4890-0"  NumberOfComponents="3" format="ascii">0.0000000000000000e+00 0.0000000000000000e+00 0.0000000000000000e+00  -3.3171562665734852e-07 0.0000000000000000e+00 0.0000000000000000e+00  -1.5449308938651020e-06 0.0000000000000000e+00 0.0000000000000000e+00  -4.8437760178491808e-06 0.0000000000000000e+00 0.0000000000000000e+00  -1.1265267079226807e-05 0.0000000000000000e+00 0.0000000000000000e+00  -2.1824217333894926e-05 0.0000000000000000e+00 0.0000000000000000e+00  -3.7517978592454974e-05 0.0000000000000000e+00 0.0000000000000000e+00  -5.9321081614578489e-05 0.0000000000000000e+00 0.0000000000000000e+00  -8.8179293213059068e-05 0.0000000000000000e+00 0.0000000000000000e+00  -1.2500337515281143e-04 0.0000000000000000e+00 0.0000000000000000e+00  -1.7066233643177710e-04 0.0000000000000000e+00 0.0000000000000000e+00  -2.2597599718344834e-04 0.0000000000000000e+00 0.0000000000000000e+00  -2.9170666937246748e-04 0.0000000000000000e+00 0.0000000000000000e+00  -3.6854969653956439e-04 0.0000000000000000e+00 0.0000000000000000e+00  -4.5712247945917740e-04 0.0000000000000000e+00 0.0000000000000000e+00  -5.5795142819452768e-04 0.0000000000000000e+00 0.0000000000000000e+00  -6.7145598799121494e-04 0.0000000000000000e+00 0.0000000000000000e+00  -7.9792843498575135e-04 0.0000000000000000e+00 0.0000000000000000e+00  -9.3750745177597283e-04 0.0000000000000000e+00 0.0000000000000000e+00  -1.0901424651716207e-03 0.0000000000000000e+00 0.0000000000000000e+00  -1.2555442096777198e-03 0.0000000000000000e+00 0.0000000000000000e+00  -1.4331147684158816e-03 0.0000000000000000e+00 0.0000000000000000e+00  -1.6218471723792860e-03 0.0000000000000000e+00 0.0000000000000000e+00  -1.8201801724888906e-03 0.0000000000000000e+00 0.0000000000000000e+00  -2.0257876316420818e-03 0.0000000000000000e+00 0.0000000000000000e+00  -2.2352736638312208e-03 0.0000000000000000e+00 0.0000000000000000e+00  -2.4437337272163735e-03 0.0000000000000000e+00 0.0000000000000000e+00  -2.6441280168710713e-03 0.0000000000000000e+00 0.0000000000000000e+00  -2.8263966281753686e-03 0.0000000000000000e+00 0.0000000000000000e+00  -2.9762265039282153e-03 0.0000000000000000e+00 0.0000000000000000e+00  -3.0733593540951008e-03 0.0000000000000000e+00 0.0000000000000000e+00  -3.0893098223286329e-03 0.0000000000000000e+00 0.0000000000000000e+00  -2.9843476123044281e-03 0.0000000000000000e+00 0.0000000000000000e+00  -2.7035903927468629e-03 0.0000000000000000e+00 0.0000000000000000e+00  -2.1720601924406077e-03 0.0000000000000000e+00 0.0000000000000000e+00  -1.2885763513755979e-03 0.0000000000000000e+00 0.0000000000000000e+00  8.1611779285172838e-05 0.0000000000000000e+00 0.0000000000000000e+00  2.1155272821887327e-03 0.0000000000000000e+00 0.0000000000000000e+00  5.0426153503272276e-03 0.0000000000000000e+00 0.0000000000000000e+00  9.1567588262657373e-03 0.0000000000000000e+00 0.0000000000000000e+00  1.4832796742094657e-02 0.0000000000000000e+00 0.0000000000000000e+00  0.0000000000000000e+00 -3.3171562770107416e-07 0.0000000000000000e+00  3.4509024484413754e-07 3.4509024743765824e-07 0.0000000000000000e+00  -3.9452937196420404e-07 1.9868604888360196e-06 0.0000000000000000e+00  -3.1943810584574376e-06 4.6086763716026000e-06 0.0000000000000000e+00  -9.1018782500715206e-06 8.2364471987007494e-06 0.0000000000000000e+00  -1.9141838863888118e-05 1.2869183145219856e-05 0.0000000000000000e+00  -3.4315627819962148e-05 1.8490975276731120e-05 0.0000000000000000e+00  -5.5599583247480844e-05 2.5077332388693630e-05 0.0000000000000000e+00  -8.3940669691600378e-05 3.2597170346301585e-05 0.0000000000000000e+00  -1.2025079734870903e-04 4.1013152236667827e-05 0.0000000000000000e+00  -1.6540028281028515e-04 5.0281470642752257e-05 0.0000000000000000e+00  -2.2021050129535192e-04 6.0351439493707397e-05 0.0000000000000000e+00  -2.8544560991098392e-04 7.1165020167642432e-05 0.0000000000000000e+00  -3.6180310845463596e-04 8.2656332037989080e-05 0.0000000000000000e+00  -4.4990287304234097e-04 9.4751176448363666e-05 0.0000000000000000e+00  -5.5027410548817897e-04 1.0736659790434408e-04 0.0000000000000000e+00  -6.6333934608835794e-04 1.2041050614918454e-04 0.0000000000000000e+00  -7.8939424513085475e-04 1.3378138439395311e-04 0.0000000000000000e+00  -9.2858110179828187e-04 1.4736811111778274e-04 0.0000000000000000e+00  -1.0808531511082241e-03 1.6104992537743453e-04 0.0000000000000000e+00  -1.2459250603620007e-03 1.7469656811570935e-04 0.0000000000000000e+00  -1.4232028842850060e-03 1.8816863517004664e-04 0.0000000000000000e+00  -1.6116835567751453e-03 2.0131818140947081e-04 0.0000000000000000e+00  -1.8098095297962105e-03 2.1398962029585566e-04 0.0000000000000000e+00  -2.0152580020022935e-03 2.2602096885115144e-04 0.0000000000000000e+00  -2.2246358582928092e-03 2.3724549469619600e-04 0.0000000000000000e+00  -2.4330405201919919e-03 2.4749382743660914e-04 0.0000000000000000e+00  -2.6334330438997230e-03 2.5659659799943935e-04 0.0000000000000000e+00  -2.8157529260004850e-03 2.6438766122479463e-04 0.0000000000000000e+00  -2.9656846144486639e-03 2.7070792797344984e-04 0.0000000000000000e+00  -3.0629648899773818e-03 2.7540977201236301e-04 0.0000000000000000e+00  -3.0791003518266784e-03 2.7836186780176992e-04 0.0000000000000000e+00  -2.9743486493658280e-03 2.7945414699178045e-04 0.0000000000000000e+00  -2.6938101569624795e-03 2.7860233240892436e-04 0.0000000000000000e+00  -2.1624826283854182e-03 2.7575122639979808e-04 0.0000000000000000e+00  -1.2791517829957282e-03 2.7087556772641423e-04 0.0000000000000000e+00  9.0978314958152341e-05 2.6397647464889746e-04 0.0000000000000000e+00  2.1249845754870230e-03 2.5506826452883108e-04 0.0000000000000000e+00  5.0523311664521136e-03 2.4413534865814687e-04 0.0000000000000000e+00  9.1665386381083996e-03 2.3097061306515820e-04 0.0000000000000000e+00  1.4838529075597805e-02 2.1452060605448004e-04 0.0000000000000000e+00  0.0000000000000000e+00 -1.5449308907875533e-06 0.0000000000000000e+00  1.9868604917443678e-06 -3.9452937014238144e-07 0.0000000000000000e+00  2.8227956878846730e-06 2.8227956808585080e-06 0.0000000000000000e+00  1.5786497011744687e-06 8.0761143569896932e-06 0.0000000000000000e+00  -2.7737299933830936e-06 1.5355816202996728e-05 0.0000000000000000e+00  -1.1256102343452959e-05 2.4641555878393524e-05 0.0000000000000000e+00  -2.4871612880321014e-05 3.5899763331323961e-05 0.0000000000000000e+00  -4.4599288049448075e-05 4.9083463296472608e-05 0.0000000000000000e+00  -7.1389047947435468e-05 6.4132637838816312e-05 0.0000000000000000e+00  -1.0615612830205479e-04 8.0974286817259953e-05 0.0000000000000000e+00  -1.4977473113163761e-04 9.9522068464860436e-05 0.0000000000000000e+00  -2.0307082915775498e-04 1.1967563640865915e-04 0.0000000000000000e+00  -2.6681399292405767e-04 1.4131980297598856e-04 0.0000000000000000e+00  -3.4170801489763041e-04 1.6432362692762740e-04 0.0000000000000000e+00  -4.2837997205589476e-04 1.8853949907037882e-04 0.0000000000000000e+00  -5.2736717237378348e-04 2.1380228622474941e-04 0.0000000000000000e+00  -6.3910113256826506e-04 2.3992859005382780e-04 0.0000000000000000e+00  -7.6388728008026767e-04 2.6671617757737572e-04 0.0000000000000000e+00  -9.0187838450764377e-04 2.9394364334127583e-04 0.0000000000000000e+00  -1.0530386946466348e-03 3.2137036730398006e-04 0.0000000000000000e+00  -1.2170942370711628e-03 3.4873683725218771e-04 0.0000000000000000e+00  -1.3934625188119286e-03 3.7576540994155186e-04 0.0000000000000000e+00  -1.5811517035846040e-03 4.0216159080862403e-04 0.0000000000000000e+00  -1.7786148618237523e-03 4.2761591838161100e-04 0.0000000000000000e+00  -1.9835387244051283e-03 4.5180654585966808e-04 0.0000000000000000e+00  -2.1925380465392516e-03 4.7440261763622560e-04 0.0000000000000000e+00  -2.4007157663036094e-03 4.9506853981914846e-04 0.0000000000000000e+00  -2.6010352818866510e-03 5.1346923555859131e-04 0.0000000000000000e+00  -2.7834343033576983e-03 5.2927644885550124e-04 0.0000000000000000e+00  -2.9335902901266538e-03 5.4217609897011521e-04 0.0000000000000000e+00  -3.0312266831423939e-03 5.5187657225091590e-04 0.0000000000000000e+00  -3.0478292533005309e-03 5.5811764158799921e-04 0.0000000000000000e+00  -2.9436263518250699e-03 5.6067939399416121e-04 0.0000000000000000e+00  -2.6636799762243387e-03 5.5939007674118090e-04 0.0000000000000000e+00  -2.1329405315131983e-03 5.5413103108806975e-04 0.0000000000000000e+00  -1.2501389727949143e-03 5.4483552464330940e-04 0.0000000000000000e+00  1.1957758064994913e-04 5.3147517243509594e-04 0.0000000000000000e+00  2.1533283618848974e-03 5.1401922813575551e-04 0.0000000000000000e+00  5.0805489328928279e-03 4.9232873391058985e-04 0.0000000000000000e+00  9.1944773083325482e-03 4.6588911426056334e-04 0.0000000000000000e+00  1.4865115923706545e-02 4.3318278161632494e-04 0.0000000000000000e+00  0.0000000000000000e+00 -4.8437760192556037e-06 0.0000000000000000e+00  4.6086763729720583e-06 -3.1943810621846138e-06 0.0000000000000000e+00  8.0761143548971831e-06 1.5786496943098600e-06 0.0000000000000000e+00  9.4400573608182075e-06 9.4400573639275740e-06 0.0000000000000000e+00  7.6882574708203563e-06 2.0359450562554191e-05 0.0000000000000000e+00  1.8034884673671904e-06 3.4296798572773309e-05 0.0000000000000000e+00  -9.2170770026650136e-06 5.1196655111075253e-05 0.0000000000000000e+00  -2.6354429113261694e-05 7.0986868640383744e-05 0.0000000000000000e+00  -5.0562000030396226e-05 9.3577721566260927e-05 0.0000000000000000e+00  -8.2759837044299147e-05 1.1886096906623369e-04 0.0000000000000000e+00  -1.2382823258650502e-04 1.4670873459398875e-04 0.0000000000000000e+00  -1.7460059351035568e-04 1.7697226568197125e-04 0.0000000000000000e+00  -2.3585534887236154e-04 2.0948058298092331e-04 0.0000000000000000e+00  -3.0830663772640841e-04 2.4403907767769079e-04 0.0000000000000000e+00  -3.9259340236136227e-04 2.8042812487865694e-04 0.0000000000000000e+00  -4.8926632277782219e-04 3.1840178793188131e-04 0.0000000000000000e+00  -5.9877173247174255e-04 3.5768669431536515e-04 0.0000000000000000e+00  -7.2143120140546308e-04 3.9798116944295793e-04 0.0000000000000000e+00  -8.5741478402313008e-04 4.3895472160581262e-04 0.0000000000000000e+00  -1.0067049002819254e-03 4.8024797800627720e-04 0.0000000000000000e+00  -1.1690462967267178e-03 5.2147317916559962e-04 0.0000000000000000e+00  -1.3438753200668123e-03 5.6221534587629106e-04 0.0000000000000000e+00  -1.5302185614259874e-03 6.0203423923203532e-04 0.0000000000000000e+00  -1.7265464590500994e-03 6.4046723928624905e-04 0.0000000000000000e+00  -1.9305612758934898e-03 6.7703327076909362e-04 0.0000000000000000e+00  -2.1388905460191978e-03 7.1123790177861671e-04 0.0000000000000000e+00  -2.3466461654229609e-03 7.4257973024063277e-04 0.0000000000000000e+00  -2.5467954528156640e-03 7.7055814381442008e-04 0.0000000000000000e+00  -2.7292736574619889e-03 7.9468248087146060e-04 0.0000000000000000e+00  -2.8797479817127508e-03 8.1448251250877690e-04 0.0000000000000000e+00  -2.9779224389695465e-03 8.2951998291094385e-04 0.0000000000000000e+00  -2.9952530612986452e-03 8.3940064823246458e-04 0.0000000000000000e+00  -2.8919275509172392e-03 8.4378578996191316e-04 0.0000000000000000e+00  -2.6129567742389148e-03 8.4240145564526045e-04 0.0000000000000000e+00  -2.0832317933628529e-03 8.3504251601150201e-04 0.0000000000000000e+00  -1.2014217163540954e-03 8.2156661326572436e-04 0.0000000000000000e+00  1.6737789532626128e-04 8.0186932415170957e-04 0.0000000000000000e+00  2.2002987894097930e-03 7.7582484239722418e-04 0.0000000000000000e+00  5.1266851857020091e-03 7.4316538852436660e-04 0.0000000000000000e+00  9.2394462734109797e-03 7.0326668270560670e-04 0.0000000000000000e+00  1.4907838583210349e-02 6.5486547265028938e-04 0.0000000000000000e+00  0.0000000000000000e+00 -1.1265267081212616e-05 0.0000000000000000e+00  8.2364471985869353e-06 -9.1018782523956554e-06 0.0000000000000000e+00  1.5355816201908789e-05 -2.7737299951168616e-06 0.0000000000000000e+00  2.0359450557520315e-05 7.6882574733138333e-06 0.0000000000000000e+00  2.2240180261025315e-05 2.2240180265842777e-05 0.0000000000000000e+00  1.9984075568233901e-05 4.0824973207564450e-05 0.0000000000000000e+00  1.2588250840689385e-05 6.3366931445571676e-05 0.0000000000000000e+00  -9.3063397612130013e-07 8.9769556955458438e-05 0.0000000000000000e+00  -2.1530266105886454e-05 1.1991404427820673e-04 0.0000000000000000e+00  -5.0136801641586346e-05 1.5365772888719856e-04 0.0000000000000000e+00  -8.7638548266225568e-05 1.9083237267281805e-04 0.0000000000000000e+00  -1.3487892012894323e-04 2.3124230510648239e-04 0.0000000000000000e+00  -1.9264843195266191e-04 2.7466247155001622e-04 0.0000000000000000e+00  -2.6167545212462545e-04 3.2083645233816970e-04 0.0000000000000000e+00  -3.4261532292331423e-04 3.6947452775436013e-04 0.0000000000000000e+00  -4.3603726916413744e-04 4.2025187649530907e-04 0.0000000000000000e+00  -5.4240822233752564e-04 4.7280700779552031e-04 0.0000000000000000e+00  -6.6207223377015480e-04 5.2674053964323986e-04 0.0000000000000000e+00  -7.9522346255403139e-04 5.8161444759177033e-04 0.0000000000000000e+00  -9.4186969382386275e-04 6.3695191990148460e-04 0.0000000000000000e+00  -1.1017818220050827e-03 6.9223796498828368e-04 0.0000000000000000e+00  -1.2744225187293625e-03 7.4692092611386364e-04 0.0000000000000000e+00  -1.4588441312141020e-03 8.0041506413392654e-04 0.0000000000000000e+00  -1.6535413872212743e-03 8.5210437163492489e-04 0.0000000000000000e+00  -1.8562383141330773e-03 9.0134777787457762e-04 0.0000000000000000e+00  -2.0635804622668287e-03 9.4748588994842233e-04 0.0000000000000000e+00  -2.2706926152695536e-03 9.8984938587853692e-04 0.0000000000000000e+00  -2.4705483390608973e-03 1.0277691193511997e-03 0.0000000000000000e+00  -2.6530809043225278e-03 1.0605878998297127e-03 0.0000000000000000e+00  -2.8039457580942635e-03 1.0876737534919144e-03 0.0000000000000000e+00  -2.9028240478574901e-03 1.1084342215954173e-03 0.0000000000000000e+00  -2.9211370036271891e-03 1.1223308715838291e-03 0.0000000000000000e+00  -2.8190257217606042e-03 1.1288926289919189e-03 0.0000000000000000e+00  -2.5414444436855825e-03 1.1277257034419965e-03 0.0000000000000000e+00  -2.0132221389556706e-03 1.1185166626613099e-03 0.0000000000000000e+00  -1.1329695700980557e-03 1.1010234510010768e-03 0.0000000000000000e+00  2.3425511229400173e-04 1.0750468061735297e-03 0.0000000000000000e+00  2.2655697187008183e-03 1.0403723366508534e-03 0.0000000000000000e+00  5.1902046499178777e-03 9.9667533243789886e-04 0.0000000000000000e+00  9.3008008673398524e-03 9.4339926496028129e-04 0.0000000000000000e+00  1.4966231193714555e-02 8.7968735653914552e-04 0.0000000000000000e+00  0.0000000000000000e+00 -2.1824217334671347e-05 0.0000000000000000e+00  1.2869183144973111e-05 -1.9141838863740388e-05 0.0000000000000000e+00  2.4641555877811643e-05 -1.1256102344949361e-05 0.0000000000000000e+00  3.4296798569177038e-05 1.8034884699057325e-06 0.0000000000000000e+00  4.0824973208836328e-05 1.9984075569510827e-05 0.0000000000000000e+00  4.3213837178160835e-05 4.3213837176038950e-05 0.0000000000000000e+00  4.0459986326097382e-05 7.1398606413124397e-05 0.0000000000000000e+00  3.1577219432648795e-05 1.0441927554196939e-04 0.0000000000000000e+00  1.5602750352773003e-05 1.4212972447637281e-04 0.0000000000000000e+00  -8.3969674189693559e-06 1.8435472562966271e-04 0.0000000000000000e+00  -4.1320060162928063e-05 2.3088767386354617e-04 0.0000000000000000e+00  -8.4022341596184949e-05 2.8148814402601761e-04 0.0000000000000000e+00  -1.3730944122331947e-04 3.3587933162016793e-04 0.0000000000000000e+00  -2.0192765304127391e-04 3.9374545466485327e-04 0.0000000000000000e+00  -2.7855309690589717e-04 4.5472921028208310e-04 0.0000000000000000e+00  -3.6777859892359488e-04 5.1842939409253415e-04 0.0000000000000000e+00  -4.7009740245106916e-04 5.8439880653606403e-04 0.0000000000000000e+00  -5.8588236762834262e-04 6.5214258623027513e-04 0.0000000000000000e+00  -7.1535862898500224e-04 7.2111712701676339e-04 0.0000000000000000e+00  -8.5856665072913741e-04 7.9072975072296361e-04 0.0000000000000000e+00  -1.0153110984858860e-03 8.6033932123762136e-04 0.0000000000000000e+00  -1.1850887325631589e-03 9.2925799637342047e-04 0.0000000000000000e+00  -1.3669853559945900e-03 9.9675431959298953e-04 0.0000000000000000e+00  -1.5595273848359311e-03 1.0620578528214011e-03 0.0000000000000000e+00  -1.7604674462024623e-03 1.1243655398744930e-03 0.0000000000000000e+00  -1.9664751034739027e-03 1.1828499629953338e-03 0.0000000000000000e+00  -2.1726929186453281e-03 1.2366696049467818e-03 0.0000000000000000e+00  -2.3721042583928521e-03 1.2849811452561070e-03 0.0000000000000000e+00  -2.5546424759050274e-03 1.3269536865702538e-03 0.0000000000000000e+00  -2.7059518017779295e-03 1.3617846046356174e-03 0.0000000000000000e+00  -2.8056896898042715e-03 1.3887164181706662e-03 0.0000000000000000e+00  -2.8252407816818075e-03 1.4070536501914325e-03 0.0000000000000000e+00  -2.7246975506659797e-03 1.4161780677688363e-03 0.0000000000000000e+00  -2.4489564500169429e-03 1.4155599145974419e-03 0.0000000000000000e+00  -1.9227854018014892e-03 1.4047617984467708e-03 0.0000000000000000e+00  -1.0447411723241199e-03 1.3834308952884781e-03 0.0000000000000000e+00  3.2014882818037928e-04 1.3512745867406836e-03 0.0000000000000000e+00  2.3489875442579290e-03 1.3080160117207242e-03 0.0000000000000000e+00  5.2709222982788200e-03 1.2533327401889024e-03 0.0000000000000000e+00  9.3784457681706478e-03 1.1868001276903132e-03 0.0000000000000000e+00  1.5040323505650559e-02 1.1078958133658460e-03 0.0000000000000000e+00  0.0000000000000000e+00 -3.7517978593348093e-05 0.0000000000000000e+00  1.8490975275623469e-05 -3.4315627818689037e-05 0.0000000000000000e+00  3.5899763325539417e-05 -2.4871612880663232e-05 0.0000000000000000e+00  5.1196655105119053e-05 -9.2170770001220717e-06 0.0000000000000000e+00  6.3366931441596544e-05 1.2588250839236395e-05 0.0000000000000000e+00  7.1398606406147014e-05 4.0459986330243249e-05 0.0000000000000000e+00  7.4287439601030506e-05 7.4287439605827667e-05 0.0000000000000000e+00  7.1044076417671296e-05 1.1393095460267855e-04 0.0000000000000000e+00  6.0700020598591638e-05 1.5921937276485001e-04 0.0000000000000000e+00  4.2313277272279219e-05 2.0994740158691844e-04 0.0000000000000000e+00  1.4974320752326503e-05 2.6587277497309075e-04 0.0000000000000000e+00  -2.2187228298581143e-05 3.2671320582116644e-04 0.0000000000000000e+00  -6.9994919326370206e-05 3.9214318843802562e-04 0.0000000000000000e+00  -1.2921645928113478e-04 4.6179073814559126e-04 0.0000000000000000e+00  -2.0055294466742230e-04 5.3523417694836188e-04 0.0000000000000000e+00  -2.8462572655225585e-04 6.1199909383195306e-04 0.0000000000000000e+00  -3.8196000189204808e-04 6.9155562833270927e-04 0.0000000000000000e+00  -4.9296376975542630e-04 7.7331624669183311e-04 0.0000000000000000e+00  -6.1790010228342121e-04 8.5663420061012378e-04 0.0000000000000000e+00  -7.5684965016577287e-04 9.4080287851027432e-04 0.0000000000000000e+00  -9.0965878261094961e-04 1.0250562763570248e-03 0.0000000000000000e+00  -1.0758665503525463e-03 1.1085708283389843e-03 0.0000000000000000e+00  -1.2546004925563011e-03 1.1904688437535651e-03 0.0000000000000000e+00  -1.4444268498007031e-03 1.2698237925681713e-03 0.0000000000000000e+00  -1.6431345943994037e-03 1.3456676637756836e-03 0.0000000000000000e+00  -1.8474244000855928e-03 1.4170005812712632e-03 0.0000000000000000e+00  -2.0524628082496188e-03 1.4828027936466745e-03 0.0000000000000000e+00  -2.2512480799982046e-03 1.5420490460990781e-03 0.0000000000000000e+00  -2.4337174973912920e-03 1.5937251799160810e-03 0.0000000000000000e+00  -2.5855066428989077e-03 1.6368465714985487e-03 0.0000000000000000e+00  -2.6862506809515389e-03 1.6704776998012420e-03 0.0000000000000000e+00  -2.7072981826239905e-03 1.6937517033912899e-03 0.0000000000000000e+00  -2.6086930433432301e-03 1.7058882521798757e-03 0.0000000000000000e+00  -2.3352739198434377e-03 1.7062074436706713e-03 0.0000000000000000e+00  -1.8117476806258942e-03 1.6941368425534365e-03 0.0000000000