<?xml version="1.0"?>
<VTKFile type="UnstructuredGrid"  version="0.1"  >
<UnstructuredGrid>
<Piece  NumberOfPoints="1681" NumberOfCells="3200">
<Points>
<DataArray  type="Float64"  NumberOfComponents="3"  format="ascii">0 0 0  0.5 0 0  1 0 0  1.5 0 0  2 0 0  2.5 0 0  3 0 0  3.5 0 0  4 0 0  4.5 0 0  5 0 0  5.5 0 0  6 0 0  6.5 0 0  7 0 0  7.5 0 0  8 0 0  8.5 0 0  9 0 0  9.5 0 0  10 0 0  10.5 0 0  11 0 0  11.5 0 0  12 0 0  12.5 0 0  13 0 0  13.5 0 0  14 0 0  14.5 0 0  15 0 0  15.5 0 0  16 0 0  16.5 0 0  17 0 0  17.5 0 0  18 0 0  18.5 0 0  19 0 0  19.5 0 0  20 0 0  0 0.5 0  0.5 0.5 0  1 0.5 0  1.5 0.5 0  2 0.5 0  2.5 0.5 0  3 0.5 0  3.5 0.5 0  4 0.5 0  4.5 0.5 0  5 0.5 0  5.5 0.5 0  6 0.5 0  6.5 0.5 0  7 0.5 0  7.5 0.5 0  8 0.5 0  8.5 0.5 0  9 0.5 0  9.5 0.5 0  10 0.5 0  10.5 0.5 0  11 0.5 0  11.5 0.5 0  12 0.5 0  12.5 0.5 0  13 0.5 0  13.5 0.5 0  14 0.5 0  14.5 0.5 0  15 0.5 0  15.5 0.5 0  16 0.5 0  16.5 0.5 0  17 0.5 0  17.5 0.5 0  18 0.5 0  18.5 0.5 0  19 0.5 0  19.5 0.5 0  20 0.5 0  0 1 0  0.5 1 0  1 1 0  1.5 1 0  2 1 0  2.5 1 0  3 1 0  3.5 1 0  4 1 0  4.5 1 0  5 1 0  5.5 1 0  6 1 0  6.5 1 0  7 1 0  7.5 1 0  8 1 0  8.5 1 0  9 1 0  9.5 1 0  10 1 0  10.5 1 0  11 1 0  11.5 1 0  12 1 0  12.5 1 0  13 1 0  13.5 1 0  14 1 0  14.5 1 0  15 1 0  15.5 1 0  16 1 0  16.5 1 0  17 1 0  17.5 1 0  18 1 0  18.5 1 0  19 1 0  19.5 1 0  20 1 0  0 1.5 0  0.5 1.5 0  1 1.5 0  1.5 1.5 0  2 1.5 0  2.5 1.5 0  3 1.5 0  3.5 1.5 0  4 1.5 0  4.5 1.5 0  5 1.5 0  5.5 1.5 0  6 1.5 0  6.5 1.5 0  7 1.5 0  7.5 1.5 0  8 1.5 0  8.5 1.5 0  9 1.5 0  9.5 1.5 0  10 1.5 0  10.5 1.5 0  11 1.5 0  11.5 1.5 0  12 1.5 0  12.5 1.5 0  13 1.5 0  13.5 1.5 0  14 1.5 0  14.5 1.5 0  15 1.5 0  15.5 1.5 0  16 1.5 0  16.5 1.5 0  17 1.5 0  17.5 1.5 0  18 1.5 0  18.5 1.5 0  19 1.5 0  19.5 1.5 0  20 1.5 0  0 2 0  0.5 2 0  1 2 0  1.5 2 0  2 2 0  2.5 2 0  3 2 0  3.5 2 0  4 2 0  4.5 2 0  5 2 0  5.5 2 0  6 2 0  6.5 2 0  7 2 0  7.5 2 0  8 2 0  8.5 2 0  9 2 0  9.5 2 0  10 2 0  10.5 2 0  11 2 0  11.5 2 0  12 2 0  12.5 2 0  13 2 0  13.5 2 0  14 2 0  14.5 2 0  15 2 0  15.5 2 0  16 2 0  16.5 2 0  17 2 0  17.5 2 0  18 2 0  18.5 2 0  19 2 0  19.5 2 0  20 2 0  0 2.5 0  0.5 2.5 0  1 2.5 0  1.5 2.5 0  2 2.5 0  2.5 2.5 0  3 2.5 0  3.5 2.5 0  4 2.5 0  4.5 2.5 0  5 2.5 0  5.5 2.5 0  6 2.5 0  6.5 2.5 0  7 2.5 0  7.5 2.5 0  8 2.5 0  8.5 2.5 0  9 2.5 0  9.5 2.5 0  10 2.5 0  10.5 2.5 0  11 2.5 0  11.5 2.5 0  12 2.5 0  12.5 2.5 0  13 2.5 0  13.5 2.5 0  14 2.5 0  14.5 2.5 0  15 2.5 0  15.5 2.5 0  16 2.5 0  16.5 2.5 0  17 2.5 0  17.5 2.5 0  18 2.5 0  18.5 2.5 0  19 2.5 0  19.5 2.5 0  20 2.5 0  0 3 0  0.5 3 0  1 3 0  1.5 3 0  2 3 0  2.5 3 0  3 3 0  3.5 3 0  4 3 0  4.5 3 0  5 3 0  5.5 3 0  6 3 0  6.5 3 0  7 3 0  7.5 3 0  8 3 0  8.5 3 0  9 3 0  9.5 3 0  10 3 0  10.5 3 0  11 3 0  11.5 3 0  12 3 0  12.5 3 0  13 3 0  13.5 3 0  14 3 0  14.5 3 0  15 3 0  15.5 3 0  16 3 0  16.5 3 0  17 3 0  17.5 3 0  18 3 0  18.5 3 0  19 3 0  19.5 3 0  20 3 0  0 3.5 0  0.5 3.5 0  1 3.5 0  1.5 3.5 0  2 3.5 0  2.5 3.5 0  3 3.5 0  3.5 3.5 0  4 3.5 0  4.5 3.5 0  5 3.5 0  5.5 3.5 0  6 3.5 0  6.5 3.5 0  7 3.5 0  7.5 3.5 0  8 3.5 0  8.5 3.5 0  9 3.5 0  9.5 3.5 0  10 3.5 0  10.5 3.5 0  11 3.5 0  11.5 3.5 0  12 3.5 0  12.5 3.5 0  13 3.5 0  13.5 3.5 0  14 3.5 0  14.5 3.5 0  15 3.5 0  15.5 3.5 0  16 3.5 0  16.5 3.5 0  17 3.5 0  17.5 3.5 0  18 3.5 0  18.5 3.5 0  19 3.5 0  19.5 3.5 0  20 3.5 0  0 4 0  0.5 4 0  1 4 0  1.5 4 0  2 4 0  2.5 4 0  3 4 0  3.5 4 0  4 4 0  4.5 4 0  5 4 0  5.5 4 0  6 4 0  6.5 4 0  7 4 0  7.5 4 0  8 4 0  8.5 4 0  9 4 0  9.5 4 0  10 4 0  10.5 4 0  11 4 0  11.5 4 0  12 4 0  12.5 4 0  13 4 0  13.5 4 0  14 4 0  14.5 4 0  15 4 0  15.5 4 0  16 4 0  16.5 4 0  17 4 0  17.5 4 0  18 4 0  18.5 4 0  19 4 0  19.5 4 0  20 4 0  0 4.5 0  0.5 4.5 0  1 4.5 0  1.5 4.5 0  2 4.5 0  2.5 4.5 0  3 4.5 0  3.5 4.5 0  4 4.5 0  4.5 4.5 0  5 4.5 0  5.5 4.5 0  6 4.5 0  6.5 4.5 0  7 4.5 0  7.5 4.5 0  8 4.5 0  8.5 4.5 0  9 4.5 0  9.5 4.5 0  10 4.5 0  10.5 4.5 0  11 4.5 0  11.5 4.5 0  12 4.5 0  12.5 4.5 0  13 4.5 0  13.5 4.5 0  14 4.5 0  14.5 4.5 0  15 4.5 0  15.5 4.5 0  16 4.5 0  16.5 4.5 0  17 4.5 0  17.5 4.5 0  18 4.5 0  18.5 4.5 0  19 4.5 0  19.5 4.5 0  20 4.5 0  0 5 0  0.5 5 0  1 5 0  1.5 5 0  2 5 0  2.5 5 0  3 5 0  3.5 5 0  4 5 0  4.5 5 0  5 5 0  5.5 5 0  6 5 0  6.5 5 0  7 5 0  7.5 5 0  8 5 0  8.5 5 0  9 5 0  9.5 5 0  10 5 0  10.5 5 0  11 5 0  11.5 5 0  12 5 0  12.5 5 0  13 5 0  13.5 5 0  14 5 0  14.5 5 0  15 5 0  15.5 5 0  16 5 0  16.5 5 0  17 5 0  17.5 5 0  18 5 0  18.5 5 0  19 5 0  19.5 5 0  20 5 0  0 5.5 0  0.5 5.5 0  1 5.5 0  1.5 5.5 0  2 5.5 0  2.5 5.5 0  3 5.5 0  3.5 5.5 0  4 5.5 0  4.5 5.5 0  5 5.5 0  5.5 5.5 0  6 5.5 0  6.5 5.5 0  7 5.5 0  7.5 5.5 0  8 5.5 0  8.5 5.5 0  9 5.5 0  9.5 5.5 0  10 5.5 0  10.5 5.5 0  11 5.5 0  11.5 5.5 0  12 5.5 0  12.5 5.5 0  13 5.5 0  13.5 5.5 0  14 5.5 0  14.5 5.5 0  15 5.5 0  15.5 5.5 0  16 5.5 0  16.5 5.5 0  17 5.5 0  17.5 5.5 0  18 5.5 0  18.5 5.5 0  19 5.5 0  19.5 5.5 0  20 5.5 0  0 6 0  0.5 6 0  1 6 0  1.5 6 0  2 6 0  2.5 6 0  3 6 0  3.5 6 0  4 6 0  4.5 6 0  5 6 0  5.5 6 0  6 6 0  6.5 6 0  7 6 0  7.5 6 0  8 6 0  8.5 6 0  9 6 0  9.5 6 0  10 6 0  10.5 6 0  11 6 0  11.5 6 0  12 6 0  12.5 6 0  13 6 0  13.5 6 0  14 6 0  14.5 6 0  15 6 0  15.5 6 0  16 6 0  16.5 6 0  17 6 0  17.5 6 0  18 6 0  18.5 6 0  19 6 0  19.5 6 0  20 6 0  0 6.5 0  0.5 6.5 0  1 6.5 0  1.5 6.5 0  2 6.5 0  2.5 6.5 0  3 6.5 0  3.5 6.5 0  4 6.5 0  4.5 6.5 0  5 6.5 0  5.5 6.5 0  6 6.5 0  6.5 6.5 0  7 6.5 0  7.5 6.5 0  8 6.5 0  8.5 6.5 0  9 6.5 0  9.5 6.5 0  10 6.5 0  10.5 6.5 0  11 6.5 0  11.5 6.5 0  12 6.5 0  12.5 6.5 0  13 6.5 0  13.5 6.5 0  14 6.5 0  14.5 6.5 0  15 6.5 0  15.5 6.5 0  16 6.5 0  16.5 6.5 0  17 6.5 0  17.5 6.5 0  18 6.5 0  18.5 6.5 0  19 6.5 0  19.5 6.5 0  20 6.5 0  0 7 0  0.5 7 0  1 7 0  1.5 7 0  2 7 0  2.5 7 0  3 7 0  3.5 7 0  4 7 0  4.5 7 0  5 7 0  5.5 7 0  6 7 0  6.5 7 0  7 7 0  7.5 7 0  8 7 0  8.5 7 0  9 7 0  9.5 7 0  10 7 0  10.5 7 0  11 7 0  11.5 7 0  12 7 0  12.5 7 0  13 7 0  13.5 7 0  14 7 0  14.5 7 0  15 7 0  15.5 7 0  16 7 0  16.5 7 0  17 7 0  17.5 7 0  18 7 0  18.5 7 0  19 7 0  19.5 7 0  20 7 0  0 7.5 0  0.5 7.5 0  1 7.5 0  1.5 7.5 0  2 7.5 0  2.5 7.5 0  3 7.5 0  3.5 7.5 0  4 7.5 0  4.5 7.5 0  5 7.5 0  5.5 7.5 0  6 7.5 0  6.5 7.5 0  7 7.5 0  7.5 7.5 0  8 7.5 0  8.5 7.5 0  9 7.5 0  9.5 7.5 0  10 7.5 0  10.5 7.5 0  11 7.5 0  11.5 7.5 0  12 7.5 0  12.5 7.5 0  13 7.5 0  13.5 7.5 0  14 7.5 0  14.5 7.5 0  15 7.5 0  15.5 7.5 0  16 7.5 0  16.5 7.5 0  17 7.5 0  17.5 7.5 0  18 7.5 0  18.5 7.5 0  19 7.5 0  19.5 7.5 0  20 7.5 0  0 8 0  0.5 8 0  1 8 0  1.5 8 0  2 8 0  2.5 8 0  3 8 0  3.5 8 0  4 8 0  4.5 8 0  5 8 0  5.5 8 0  6 8 0  6.5 8 0  7 8 0  7.5 8 0  8 8 0  8.5 8 0  9 8 0  9.5 8 0  10 8 0  10.5 8 0  11 8 0  11.5 8 0  12 8 0  12.5 8 0  13 8 0  13.5 8 0  14 8 0  14.5 8 0  15 8 0  15.5 8 0  16 8 0  16.5 8 0  17 8 0  17.5 8 0  18 8 0  18.5 8 0  19 8 0  19.5 8 0  20 8 0  0 8.5 0  0.5 8.5 0  1 8.5 0  1.5 8.5 0  2 8.5 0  2.5 8.5 0  3 8.5 0  3.5 8.5 0  4 8.5 0  4.5 8.5 0  5 8.5 0  5.5 8.5 0  6 8.5 0  6.5 8.5 0  7 8.5 0  7.5 8.5 0  8 8.5 0  8.5 8.5 0  9 8.5 0  9.5 8.5 0  10 8.5 0  10.5 8.5 0  11 8.5 0  11.5 8.5 0  12 8.5 0  12.5 8.5 0  13 8.5 0  13.5 8.5 0  14 8.5 0  14.5 8.5 0  15 8.5 0  15.5 8.5 0  16 8.5 0  16.5 8.5 0  17 8.5 0  17.5 8.5 0  18 8.5 0  18.5 8.5 0  19 8.5 0  19.5 8.5 0  20 8.5 0  0 9 0  0.5 9 0  1 9 0  1.5 9 0  2 9 0  2.5 9 0  3 9 0  3.5 9 0  4 9 0  4.5 9 0  5 9 0  5.5 9 0  6 9 0  6.5 9 0  7 9 0  7.5 9 0  8 9 0  8.5 9 0  9 9 0  9.5 9 0  10 9 0  10.5 9 0  11 9 0  11.5 9 0  12 9 0  12.5 9 0  13 9 0  13.5 9 0  14 9 0  14.5 9 0  15 9 0  15.5 9 0  16 9 0  16.5 9 0  17 9 0  17.5 9 0  18 9 0  18.5 9 0  19 9 0  19.5 9 0  20 9 0  0 9.5 0  0.5 9.5 0  1 9.5 0  1.5 9.5 0  2 9.5 0  2.5 9.5 0  3 9.5 0  3.5 9.5 0  4 9.5 0  4.5 9.5 0  5 9.5 0  5.5 9.5 0  6 9.5 0  6.5 9.5 0  7 9.5 0  7.5 9.5 0  8 9.5 0  8.5 9.5 0  9 9.5 0  9.5 9.5 0  10 9.5 0  10.5 9.5 0  11 9.5 0  11.5 9.5 0  12 9.5 0  12.5 9.5 0  13 9.5 0  13.5 9.5 0  14 9.5 0  14.5 9.5 0  15 9.5 0  15.5 9.5 0  16 9.5 0  16.5 9.5 0  17 9.5 0  17.5 9.5 0  18 9.5 0  18.5 9.5 0  19 9.5 0  19.5 9.5 0  20 9.5 0  0 10 0  0.5 10 0  1 10 0  1.5 10 0  2 10 0  2.5 10 0  3 10 0  3.5 10 0  4 10 0  4.5 10 0  5 10 0  5.5 10 0  6 10 0  6.5 10 0  7 10 0  7.5 10 0  8 10 0  8.5 10 0  9 10 0  9.5 10 0  10 10 0  10.5 10 0  11 10 0  11.5 10 0  12 10 0  12.5 10 0  13 10 0  13.5 10 0  14 10 0  14.5 10 0  15 10 0  15.5 10 0  16 10 0  16.5 10 0  17 10 0  17.5 10 0  18 10 0  18.5 10 0  19 10 0  19.5 10 0  20 10 0  0 10.5 0  0.5 10.5 0  1 10.5 0  1.5 10.5 0  2 10.5 0  2.5 10.5 0  3 10.5 0  3.5 10.5 0  4 10.5 0  4.5 10.5 0  5 10.5 0  5.5 10.5 0  6 10.5 0  6.5 10.5 0  7 10.5 0  7.5 10.5 0  8 10.5 0  8.5 10.5 0  9 10.5 0  9.5 10.5 0  10 10.5 0  10.5 10.5 0  11 10.5 0  11.5 10.5 0  12 10.5 0  12.5 10.5 0  13 10.5 0  13.5 10.5 0  14 10.5 0  14.5 10.5 0  15 10.5 0  15.5 10.5 0  16 10.5 0  16.5 10.5 0  17 10.5 0  17.5 10.5 0  18 10.5 0  18.5 10.5 0  19 10.5 0  19.5 10.5 0  20 10.5 0  0 11 0  0.5 11 0  1 11 0  1.5 11 0  2 11 0  2.5 11 0  3 11 0  3.5 11 0  4 11 0  4.5 11 0  5 11 0  5.5 11 0  6 11 0  6.5 11 0  7 11 0  7.5 11 0  8 11 0  8.5 11 0  9 11 0  9.5 11 0  10 11 0  10.5 11 0  11 11 0  11.5 11 0  12 11 0  12.5 11 0  13 11 0  13.5 11 0  14 11 0  14.5 11 0  15 11 0  15.5 11 0  16 11 0  16.5 11 0  17 11 0  17.5 11 0  18 11 0  18.5 11 0  19 11 0  19.5 11 0  20 11 0  0 11.5 0  0.5 11.5 0  1 11.5 0  1.5 11.5 0  2 11.5 0  2.5 11.5 0  3 11.5 0  3.5 11.5 0  4 11.5 0  4.5 11.5 0  5 11.5 0  5.5 11.5 0  6 11.5 0  6.5 11.5 0  7 11.5 0  7.5 11.5 0  8 11.5 0  8.5 11.5 0  9 11.5 0  9.5 11.5 0  10 11.5 0  10.5 11.5 0  11 11.5 0  11.5 11.5 0  12 11.5 0  12.5 11.5 0  13 11.5 0  13.5 11.5 0  14 11.5 0  14.5 11.5 0  15 11.5 0  15.5 11.5 0  16 11.5 0  16.5 11.5 0  17 11.5 0  17.5 11.5 0  18 11.5 0  18.5 11.5 0  19 11.5 0  19.5 11.5 0  20 11.5 0  0 12 0  0.5 12 0  1 12 0  1.5 12 0  2 12 0  2.5 12 0  3 12 0  3.5 12 0  4 12 0  4.5 12 0  5 12 0  5.5 12 0  6 12 0  6.5 12 0  7 12 0  7.5 12 0  8 12 0  8.5 12 0  9 12 0  9.5 12 0  10 12 0  10.5 12 0  11 12 0  11.5 12 0  12 12 0  12.5 12 0  13 12 0  13.5 12 0  14 12 0  14.5 12 0  
[...]
<PointData  Vectors="f_2975-0"> 
<DataArray  type="Float64"  Name="f_2975-0"  NumberOfComponents="3" format="ascii">0.0000000000000000e+00 0.0000000000000000e+00 0.0000000000000000e+00  -8.4003440216486773e-07 0.0000000000000000e+00 0.0000000000000000e+00  -3.7606106211209833e-06 0.0000000000000000e+00 0.0000000000000000e+00  -1.1723096312416150e-05 0.0000000000000000e+00 0.0000000000000000e+00  -2.7242319131713735e-05 0.0000000000000000e+00 0.0000000000000000e+00  -5.2771707130338165e-05 0.0000000000000000e+00 0.0000000000000000e+00  -9.0717513965162184e-05 0.0000000000000000e+00 0.0000000000000000e+00  -1.4342448822061925e-04 0.0000000000000000e+00 0.0000000000000000e+00  -2.1315879320602164e-04 0.0000000000000000e+00 0.0000000000000000e+00  -3.0208883185137706e-04 0.0000000000000000e+00 0.0000000000000000e+00  -4.1226298154064395e-04 0.0000000000000000e+00 0.0000000000000000e+00  -5.4558306897926553e-04 0.0000000000000000e+00 0.0000000000000000e+00  -7.0377211777744098e-04 0.0000000000000000e+00 0.0000000000000000e+00  -8.8833442212672567e-04 0.0000000000000000e+00 0.0000000000000000e+00  -1.1005053286306161e-03 0.0000000000000000e+00 0.0000000000000000e+00  -1.3411872081056781e-03 0.0000000000000000e+00 0.0000000000000000e+00  -1.6108669157338393e-03 0.0000000000000000e+00 0.0000000000000000e+00  -1.9095085097828640e-03 0.0000000000000000e+00 0.0000000000000000e+00  -2.2364130619890584e-03 0.0000000000000000e+00 0.0000000000000000e+00  -2.5900349865171125e-03 0.0000000000000000e+00 0.0000000000000000e+00  -2.9677413925408517e-03 0.0000000000000000e+00 0.0000000000000000e+00  -3.3654975076812051e-03 0.0000000000000000e+00 0.0000000000000000e+00  -3.7774572457394528e-03 0.0000000000000000e+00 0.0000000000000000e+00  -4.1954335795746254e-03 0.0000000000000000e+00 0.0000000000000000e+00  -4.6082186734456151e-03 0.0000000000000000e+00 0.0000000000000000e+00  -5.0007189472330849e-03 0.0000000000000000e+00 0.0000000000000000e+00  -5.3528656643224088e-03 0.0000000000000000e+00 0.0000000000000000e+00  -5.6382575524560330e-03 0.0000000000000000e+00 0.0000000000000000e+00  -5.8224886195587279e-03 0.0000000000000000e+00 0.0000000000000000e+00  -5.8611117699329052e-03 0.0000000000000000e+00 0.0000000000000000e+00  -5.6971867576822641e-03 0.0000000000000000e+00 0.0000000000000000e+00  -5.2583585476855118e-03 0.0000000000000000e+00 0.0000000000000000e+00  -4.4534075500275655e-03 0.0000000000000000e+00 0.0000000000000000e+00  -3.1682035325431837e-03 0.0000000000000000e+00 0.0000000000000000e+00  -1.2609757720840825e-03 0.0000000000000000e+00 0.0000000000000000e+00  1.4432237133781627e-03 0.0000000000000000e+00 0.0000000000000000e+00  5.1590504286181862e-03 0.0000000000000000e+00 0.0000000000000000e+00  1.0148691690093619e-02 0.0000000000000000e+00 0.0000000000000000e+00  1.6731521606102376e-02 0.0000000000000000e+00 0.0000000000000000e+00  2.5296847568020392e-02 0.0000000000000000e+00 0.0000000000000000e+00  3.6324427901923570e-02 0.0000000000000000e+00 0.0000000000000000e+00  0.0000000000000000e+00 -8.4003440656039327e-07 0.0000000000000000e+00  8.3589484070951856e-07 8.3589483929415234e-07 0.0000000000000000e+00  -9.4936875346659944e-07 4.8418126575479096e-06 0.0000000000000000e+00  -7.7109584481548050e-06 1.1210646012670363e-05 0.0000000000000000e+00  -2.1988393655190974e-05 2.0011954641170929e-05 0.0000000000000000e+00  -4.6261343328784683e-05 3.1247569444700013e-05 0.0000000000000000e+00  -8.2946922103129951e-05 4.4881257610826869e-05 0.0000000000000000e+00  -1.3439484318888100e-04 6.0855177909832685e-05 0.0000000000000000e+00  -2.0287447406571431e-04 7.9095262741633166e-05 0.0000000000000000e+00  -2.9055714431206126e-04 9.9512308764504909e-05 0.0000000000000000e+00  -3.9949444431950482e-04 1.2200159208661419e-04 0.0000000000000000e+00  -5.3159194457442420e-04 1.4644197100191511e-04 0.0000000000000000e+00  -6.8857706318346920e-04 1.7269480620896239e-04 0.0000000000000000e+00  -8.7195919989920727e-04 2.0060283131234427e-04 0.0000000000000000e+00  -1.0829795411543490e-03 2.2998904877679692e-04 0.0000000000000000e+00  -1.3225470247611156e-03 2.6065571221149447e-04 0.0000000000000000e+00  -1.5911557632579116e-03 2.9238345562983053e-04 0.0000000000000000e+00  -1.8887776940123612e-03 3.2493063477067729e-04 0.0000000000000000e+00  -2.2147222857295417e-03 3.5803295186491435e-04 0.0000000000000000e+00  -2.5674527244935255e-03 3.9140344109244585e-04 0.0000000000000000e+00  -2.9443450809569110e-03 4.2473289686476647e-04 0.0000000000000000e+00  -3.3413735034586705e-03 4.5769082943745298e-04 0.0000000000000000e+00  -3.7527005098303523e-03 4.8992703111047176e-04 0.0000000000000000e+00  -4.1701470400677789e-03 5.2107382933904876e-04 0.0000000000000000e+00  -4.5825122281369793e-03 5.5074908849342874e-04 0.0000000000000000e+00  -4.9747080711016528e-03 5.7855999787606572e-04 0.0000000000000000e+00  -5.3266695935614960e-03 6.0410764742342986e-04 0.0000000000000000e+00  -5.6119970193637663e-03 6.2699234309647955e-04 0.0000000000000000e+00  -5.7962831056744520e-03 6.4681955188872859e-04 0.0000000000000000e+00  -5.8350762188505243e-03 6.6320629386044971e-04 0.0000000000000000e+00  -5.6714276320457392e-03 6.7578772321331168e-04 0.0000000000000000e+00  -5.2329690162685061e-03 6.8422357210189090e-04 0.0000000000000000e+00  -4.4284614499060290e-03 6.8820408314629431e-04 0.0000000000000000e+00  -3.1437476066448924e-03 6.8745503489284535e-04 0.0000000000000000e+00  -1.2370197003224546e-03 6.8174144833237744e-04 0.0000000000000000e+00  1.4667191689063631e-03 6.7086945933865928e-04 0.0000000000000000e+00  5.1821827758705297e-03 6.5468539007370360e-04 0.0000000000000000e+00  1.0171600373212191e-02 6.3306950195933314e-04 0.0000000000000000e+00  1.6754224568936434e-02 6.0591618296679348e-04 0.0000000000000000e+00  2.5318183803016814e-02 5.7306498103285931e-04 0.0000000000000000e+00  3.6334974960229777e-02 5.3398166798334051e-04 0.0000000000000000e+00  0.0000000000000000e+00 -3.7606106274393434e-06 0.0000000000000000e+00  4.8418126588235870e-06 -9.4936875244508681e-07 0.0000000000000000e+00  6.8790487724492028e-06 6.8790487727393497e-06 0.0000000000000000e+00  3.8860079345017323e-06 1.9637559139818097e-05 0.0000000000000000e+00  -6.6247842069621186e-06 3.7303194021645543e-05 0.0000000000000000e+00  -2.7124028412394473e-05 5.9829056789596022e-05 0.0000000000000000e+00  -6.0032940248019042e-05 8.7136574934042270e-05 0.0000000000000000e+00  -1.0770782724501459e-04 1.1911459472272877e-04 0.0000000000000000e+00  -1.7242527511408625e-04 1.5562029271528878e-04 0.0000000000000000e+00  -2.5636462058807629e-04 1.9647950215580826e-04 0.0000000000000000e+00  -3.6158669298606307e-04 2.4148603396323152e-04 0.0000000000000000e+00  -4.9000790223430537e-04 2.9040024008844734e-04 0.0000000000000000e+00  -6.4336836108011238e-04 3.4294713117917833e-04 0.0000000000000000e+00  -8.2319217407431555e-04 3.9881429053879609e-04 0.0000000000000000e+00  -1.0307373114760723e-03 4.5764976590195451e-04 0.0000000000000000e+00  -1.2669315617924691e-03 5.1906008862533028e-04 0.0000000000000000e+00  -1.5322898602310470e-03 5.8260855938153131e-04 0.0000000000000000e+00  -1.8268067549571368e-03 6.4781394083791583e-04 0.0000000000000000e+00  -2.1498158325828414e-03 7.1414970491341591e-04 0.0000000000000000e+00  -2.4998055171810696e-03 7.8104399070690631e-04 0.0000000000000000e+00  -2.8741777367151376e-03 8.4788043645517741e-04 0.0000000000000000e+00  -3.2689324966852901e-03 9.1400005174622698e-04 0.0000000000000000e+00  -3.6782574330855816e-03 9.7870429259626270e-04 0.0000000000000000e+00  -4.0939970125423936e-03 1.0412594879007340e-03 0.0000000000000000e+00  -4.5049713512920675e-03 1.1009027390523191e-03 0.0000000000000000e+00  -4.8961098537113924e-03 1.1568493704599691e-03 0.0000000000000000e+00  -5.2473602998655442e-03 1.2083019456642938e-03 0.0000000000000000e+00  -5.5323299327184978e-03 1.2544607785765298e-03 0.0000000000000000e+00  -5.7166117423073613e-03 1.2945357635827095e-03 0.0000000000000000e+00  -5.7557465654277844e-03 1.3277592242422892e-03 0.0000000000000000e+00  -5.5927695106161909e-03 1.3533993454856222e-03 0.0000000000000000e+00  -5.1552866995732303e-03 1.3707736161218738e-03 0.0000000000000000e+00  -4.3520236788660979e-03 1.3792615691733256e-03 0.0000000000000000e+00  -3.0687772765070807e-03 1.3783159408096459e-03 0.0000000000000000e+00  -1.1636839065821275e-03 1.3674710685692719e-03 0.0000000000000000e+00  1.5383166870828718e-03 1.3463465851056727e-03 0.0000000000000000e+00  5.2520008081610196e-03 1.3146422191787342e-03 0.0000000000000000e+00  1.0239633781256915e-02 1.2721124626804646e-03 0.0000000000000000e+00  1.6820404298128918e-02 1.2184866100874417e-03 0.0000000000000000e+00  2.5382103429465942e-02 1.1532226280671057e-03 0.0000000000000000e+00  3.6395771702231586e-02 1.0747390776777500e-03 0.0000000000000000e+00  0.0000000000000000e+00 -1.1723096319466205e-05 0.0000000000000000e+00  1.1210646014282634e-05 -7.7109584493088671e-06 0.0000000000000000e+00  1.9637559142201007e-05 3.8860079275546730e-06 0.0000000000000000e+00  2.2970525013061067e-05 2.2970525008183441e-05 0.0000000000000000e+00  1.8765041526085695e-05 4.9466409968973453e-05 0.0000000000000000e+00  4.5632439550226472e-06 8.3277587248761510e-05 0.0000000000000000e+00  -2.2054390590776173e-05 1.2427185966671481e-04 0.0000000000000000e+00  -6.3448384274272552e-05 1.7227717579972035e-04 0.0000000000000000e+00  -1.2190341408044134e-04 2.2707940197884955e-04 0.0000000000000000e+00  -1.9961004183423011e-04 2.8842003078164975e-04 0.0000000000000000e+00  -2.9864332739530403e-04 3.5599362986990773e-04 0.0000000000000000e+00  -4.2093702977337742e-04 4.2944499162488514e-04 0.0000000000000000e+00  -5.6825189950006252e-04 5.0836603503691380e-04 0.0000000000000000e+00  -7.4213610692480604e-04 5.9229257707936619e-04 0.0000000000000000e+00  -9.4387518046132812e-04 6.8070112774571844e-04 0.0000000000000000e+00  -1.1744279224301917e-03 7.7300588381724238e-04 0.0000000000000000e+00  -1.4343435803510641e-03 8.6855611157320210e-04 0.0000000000000000e+00  -1.7236540182473269e-03 9.6663412306052874e-04 0.0000000000000000e+00  -2.0417326928555296e-03 1.0664540653611803e-03 0.0000000000000000e+00  -2.3871098339563060e-03 1.1671617560839701e-03 0.0000000000000000e+00  -2.7572303105920233e-03 1.2678358085518831e-03 0.0000000000000000e+00  -3.1481372154418970e-03 1.3674902942556139e-03 0.0000000000000000e+00  -3.5540602395454776e-03 1.4650791840343572e-03 0.0000000000000000e+00  -3.9668835150524530e-03 1.5595027896188722e-03 0.0000000000000000e+00  -4.3754629204842896e-03 1.6496163888272293e-03 0.0000000000000000e+00  -4.7647580866833922e-03 1.7342411563698854e-03 0.0000000000000000e+00  -5.1147397863739027e-03 1.8121774342743789e-03 0.0000000000000000e+00  -5.3990293267594516e-03 1.8822202570380274e-03 0.0000000000000000e+00  -5.5832232232575461e-03 1.9431768969608090e-03 0.0000000000000000e+00  -5.6228538613617004e-03 1.9938860132778066e-03 0.0000000000000000e+00  -5.4609347478708457e-03 2.0332377776542919e-03 0.0000000000000000e+00  -5.0250364406891415e-03 2.0601941040931798e-03 0.0000000000000000e+00  -4.2238346420958592e-03 2.0738078140045994e-03 0.0000000000000000e+00  -2.9430624769632516e-03 2.0732391445507830e-03 0.0000000000000000e+00  -1.0407805307944920e-03 2.0577672595060480e-03 0.0000000000000000e+00  1.6581549669345045e-03 2.0267928288637714e-03 0.0000000000000000e+00  5.3686009723506343e-03 1.9798240464874457e-03 0.0000000000000000e+00  1.0352875725395456e-02 1.9164298240329756e-03 0.0000000000000000e+00  1.6930135193296218e-02 1.8361253766909808e-03 0.0000000000000000e+00  2.5487930028191969e-02 1.7381260867245848e-03 0.0000000000000000e+00  3.6496660849376826e-02 1.6209133578722016e-03 0.0000000000000000e+00  0.0000000000000000e+00 -2.7242319138467651e-05 0.0000000000000000e+00  2.0011954639707978e-05 -2.1988393657665256e-05 0.0000000000000000e+00  3.7303194022485597e-05 -6.6247842112702917e-06 0.0000000000000000e+00  4.9466409966235070e-05 1.8765041524115405e-05 0.0000000000000000e+00  5.4071145107505233e-05 5.4071145110863502e-05 0.0000000000000000e+00  4.8669008218064912e-05 9.9155324943573617e-05 0.0000000000000000e+00  3.0841277482829809e-05 1.5383588447762979e-04 0.0000000000000000e+00  -1.7775468254687866e-06 2.1788175816232693e-04 0.0000000000000000e+00  -5.1481773766313335e-05 2.9100867608971285e-04 0.0000000000000000e+00  -1.2047602547674710e-04 3.7287544167251220e-04 0.0000000000000000e+00  -2.1085391195906265e-04 4.6307991079754164e-04 0.0000000000000000e+00  -3.2457239234106125e-04 5.6115467101072129e-04 0.0000000000000000e+00  -4.6342024276017728e-04 6.6656251845734649e-04 0.0000000000000000e+00  -6.2897862005808927e-04 7.7869186693691232e-04 0.0000000000000000e+00  -8.2257105177229860e-04 8.9685225446405027e-04 0.0000000000000000e+00  -1.0451992839222689e-03 1.0202701443623118e-03 0.0000000000000000e+00  -1.2974602328116528e-03 1.1480852485945331e-03 0.0000000000000000e+00  -1.5794377567941631e-03 1.2793476300199671e-03 0.0000000000000000e+00  -1.8905610270026083e-03 1.4130158665263137e-03 0.0000000000000000e+00  -2.2294188734689985e-03 1.5479565827250187e-03 0.0000000000000000e+00  -2.5935165705627304e-03 1.6829456706670915e-03 0.0000000000000000e+00  -2.9789580831869086e-03 1.8166715286629155e-03 0.0000000000000000e+00  -3.3800328454977979e-03 1.9477406404319964e-03 0.0000000000000000e+00  -3.7886817629970513e-03 2.0746857928530264e-03 0.0000000000000000e+00  -4.1938124630861344e-03 2.1959771825664069e-03 0.0000000000000000e+00  -4.5804290831558299e-03 2.3100365846213155e-03 0.0000000000000000e+00  -4.9285373530935503e-03 2.4152546445590358e-03 0.0000000000000000e+00  -5.2117816886480713e-03 2.5100112033906931e-03 0.0000000000000000e+00  -5.3957676931577813e-03 2.5926983692860636e-03 0.0000000000000000e+00  -5.4360209135989298e-03 2.6617458064584626e-03 0.0000000000000000e+00  -5.2755306103567786e-03 2.7156474172738885e-03 0.0000000000000000e+00  -4.8418248169828336e-03 2.7529882361724141e-03 0.0000000000000000e+00  -4.0435184270408986e-03 2.7724699045107359e-03 0.0000000000000000e+00  -2.7662667455715475e-03 2.7729324728258693e-03 0.0000000000000000e+00  -8.6803888412931545e-04 2.7533693012338051e-03 0.0000000000000000e+00  1.8264069493650861e-03 2.7129301377404303e-03 0.0000000000000000e+00  5.5320179887702083e-03 2.6509044868225314e-03 0.0000000000000000e+00  1.0511166978837451e-02 2.5666728342717622e-03 0.0000000000000000e+00  1.7082977404625155e-02 2.4596096900507446e-03 0.0000000000000000e+00  2.5634807786642452e-02 2.3289343882939959e-03 0.0000000000000000e+00  3.6636694386057704e-02 2.1735837216698582e-03 0.0000000000000000e+00  0.0000000000000000e+00 -5.2771707136142556e-05 0.0000000000000000e+00  3.1247569443894905e-05 -4.6261343332941399e-05 0.0000000000000000e+00  5.9829056791672181e-05 -2.7124028416422999e-05 0.0000000000000000e+00  8.3277587244809010e-05 4.5632439541437184e-06 0.0000000000000000e+00  9.9155324944293771e-05 4.8669008223494644e-05 0.0000000000000000e+00  1.0501885563411439e-04 1.0501885563642856e-04 0.0000000000000000e+00  9.8449025812991575e-05 1.7338607308726422e-04 0.0000000000000000e+00  7.7074157330982160e-05 2.5348476627268994e-04 0.0000000000000000e+00  3.8588387419065535e-05 3.4496469175070989e-04 0.0000000000000000e+00  -1.9229874396834186e-05 4.4740624835058241e-04 0.0000000000000000e+00  -9.8496888501114737e-05 5.6031515381046852e-04 0.0000000000000000e+00  -2.0119827047700013e-04 6.8311676112238094e-04 0.0000000000000000e+00  -3.2915775060377576e-04 8.1515011832056054e-04 0.0000000000000000e+00  -4.8399794674444142e-04 9.5566193768185849e-04 0.0000000000000000e+00  -6.6709044335491545e-04 1.1038006793696663e-03 0.0000000000000000e+00  -8.7949157309519038e-04 1.2586109894682435e-03 0.0000000000000000e+00  -1.1218591123077651e-03 1.4190287685804765e-03 0.0000000000000000e+00  -1.3943435720639693e-03 1.5838771830484972e-03 0.0000000000000000e+00  -1.6964458306750483e-03 1.7518639658347167e-03 0.0000000000000000e+00  -2.0268304545759020e-03 1.9215803846948471e-03 0.0000000000000000e+00  -2.3830811472644311e-03 2.0915022783154630e-03 0.0000000000000000e+00  -2.7613813328856225e-03 2.2599935733080808e-03 0.0000000000000000e+00  -3.1560989436218143e-03 2.4253126903015223e-03 0.0000000000000000e+00  -3.5592501166411480e-03 2.5856222215270190e-03 0.0000000000000000e+00  -3.9598118619735730e-03 2.7390022074806853e-03 0.0000000000000000e+00  -4.3428490532787349e-03 2.8834672502260949e-03 0.0000000000000000e+00  -4.6884165907756037e-03 3.0169875681406700e-03 0.0000000000000000e+00  -4.9701935778501613e-03 3.1375139143347552e-03 0.0000000000000000e+00  -5.1538030668877612e-03 3.2430060423351888e-03 0.0000000000000000e+00  -5.1947684118442330e-03 3.3314641015952575e-03 0.0000000000000000e+00  -5.0360552142552908e-03 3.4009619764753039e-03 0.0000000000000000e+00  -4.6051454136317093e-03 3.4496811348788329e-03 0.0000000000000000e+00  -3.8105856181409204e-03 3.4759430083207846e-03 0.0000000000000000e+00  -2.5379426407038338e-03 3.4782372432254757e-03 0.0000000000000000e+00  -6.4508148179302576e-04 3.4552422796537297e-03 0.0000000000000000e+00  2.0433507423643204e-03 3.4058335782345731e-03 0.0000000000000000e+00  5.7424044436189536e-03 3.3290736116649701e-03 0.0000000000000000e+00  1.0714524275519138e-02 3.2241776127366001e-03 0.0000000000000000e+00  1.7278845179801560e-02 3.0904539945850493e-03 0.0000000000000000e+00  2.5822667134473218e-02 2.9272381928640689e-03 0.0000000000000000e+00  3.6816005092842809e-02 2.7338883818597156e-03 0.0000000000000000e+00  0.0000000000000000e+00 -9.0717513971550601e-05 0.0000000000000000e+00  4.4881257610450861e-05 -8.2946922103835699e-05 0.0000000000000000e+00  8.7136574926952726e-05 -6.0032940247873189e-05 0.0000000000000000e+00  1.2427185965753647e-04 -2.2054390586707098e-05 0.0000000000000000e+00  1.5383588446701125e-04 3.0841277481857002e-05 0.0000000000000000e+00  1.7338607307927742e-04 9.8449025819218758e-05 0.0000000000000000e+00  1.8050185310093924e-04 1.8050185310530687e-04 0.0000000000000000e+00  1.7280462314226786e-04 2.7666394403135663e-04 0.0000000000000000e+00  1.4797554368671536e-04 3.8652443195742416e-04 0.0000000000000000e+00  1.0377362626692546e-04 5.0959113864940608e-04 0.0000000000000000e+00  3.8056339767911380e-05 6.4528392898704047e-04 0.0000000000000000e+00  -5.1195545751558834e-05 7.9292762962735873e-04 0.0000000000000000e+00  -1.6584713732273752e-04 9.5174461617295221e-04 0.0000000000000000e+00  -3.0757050499759058e-04 1.1208472527642430e-03 0.0000000000000000e+00  -4.7779492466218252e-04 1.2992304206420886e-03 0.0000000000000000e+00  -6.7764263390403842e-04 1.4857644174823563e-03 0.0000000000000000e+00  -9.0784527222841722e-04 1.6791885537607949e-03 0.0000000000000000e+00  -1.1686346467099755e-03 1.8781058165816592e-03 0.0000000000000000e+00  -1.4595995294345509e-03 2.0809790145973803e-03 0.0000000000000000e+00  -1.7794977967786768e-03 2.2861288568306075e-03 0.0000000000000000e+00  -2.1260103194617255e-03 2.4917344493544870e-03 0.0000000000000000e+00  -2.4954195890850967e-03 2.6958367127584673e-03 0.0000000000000000e+00  -2.8821921440241160e-03 2.8963452235944652e-03 0.0000000000000000e+00  -3.2784395141842613e-03 3.0910489586227219e-03 0.0000000000000000e+00  -3.6732277855801446e-03 3.2776313632351278e-03 0.0000000000000000e+00  -4.0517012079789895e-03 3.4536900667209510e-03 0.0000000000000000e+00  -4.3939808031961698e-03 3.6167614182595503e-03 0.0000000000000000e+00  -4.6737949651820153e-03 3.7643498099001996e-03 0.0000000000000000e+00  -4.8567958011873739e-03 3.8939614777892453e-03 0.0000000000000000e+00  -4.8985124905806506e-03 4.0031421244420638e-03 0.0000000000000000e+00  -4.7418909340899741e-03 4.0895172780545672e-03 0.0000000000000000e+00  -4.3143665828265553e-03 4.1508337988127829e-03 0.0000000000000000e+00  -3.5244129507957384e-03 4.1850003616494061e-03 0.0000000000000000e+00  -2.2574992871943951e-03 4.1901241081688280e-03 0.0000000000000000e+00  -3.7137330546219827e-04 4.1645400236000017e-03 0.0000000000000000