<?xml version="1.0"?>
<VTKFile type="UnstructuredGrid"  version="0.1"  >
<UnstructuredGrid>
<Piece  NumberOfPoints="1681" NumberOfCells="3200">
<Points>
<DataArray  type="Float64"  NumberOfComponents="3"  format="ascii">0 0 0  0.5 0 0  1 0 0  1.5 0 0  2 0 0  2.5 0 0  3 0 0  3.5 0 0  4 0 0  4.5 0 0  5 0 0  5.5 0 0  6 0 0  6.5 0 0  7 0 0  7.5 0 0  8 0 0  8.5 0 0  9 0 0  9.5 0 0  10 0 0  10.5 0 0  11 0 0  11.5 0 0  12 0 0  12.5 0 0  13 0 0  13.5 0 0  14 0 0  14.5 0 0  15 0 0  15.5 0 0  16 0 0  16.5 0 0  17 0 0  17.5 0 0  18 0 0  18.5 0 0  19 0 0  19.5 0 0  20 0 0  0 0.5 0  0.5 0.5 0  1 0.5 0  1.5 0.5 0  2 0.5 0  2.5 0.5 0  3 0.5 0  3.5 0.5 0  4 0.5 0  4.5 0.5 0  5 0.5 0  5.5 0.5 0  6 0.5 0  6.5 0.5 0  7 0.5 0  7.5 0.5 0  8 0.5 0  8.5 0.5 0  9 0.5 0  9.5 0.5 0  10 0.5 0  10.5 0.5 0  11 0.5 0  11.5 0.5 0  12 0.5 0  12.5 0.5 0  13 0.5 0  13.5 0.5 0  14 0.5 0  14.5 0.5 0  15 0.5 0  15.5 0.5 0  16 0.5 0  16.5 0.5 0  17 0.5 0  17.5 0.5 0  18 0.5 0  18.5 0.5 0  19 0.5 0  19.5 0.5 0  20 0.5 0  0 1 0  0.5 1 0  1 1 0  1.5 1 0  2 1 0  2.5 1 0  3 1 0  3.5 1 0  4 1 0  4.5 1 0  5 1 0  5.5 1 0  6 1 0  6.5 1 0  7 1 0  7.5 1 0  8 1 0  8.5 1 0  9 1 0  9.5 1 0  10 1 0  10.5 1 0  11 1 0  11.5 1 0  12 1 0  12.5 1 0  13 1 0  13.5 1 0  14 1 0  14.5 1 0  15 1 0  15.5 1 0  16 1 0  16.5 1 0  17 1 0  17.5 1 0  18 1 0  18.5 1 0  19 1 0  19.5 1 0  20 1 0  0 1.5 0  0.5 1.5 0  1 1.5 0  1.5 1.5 0  2 1.5 0  2.5 1.5 0  3 1.5 0  3.5 1.5 0  4 1.5 0  4.5 1.5 0  5 1.5 0  5.5 1.5 0  6 1.5 0  6.5 1.5 0  7 1.5 0  7.5 1.5 0  8 1.5 0  8.5 1.5 0  9 1.5 0  9.5 1.5 0  10 1.5 0  10.5 1.5 0  11 1.5 0  11.5 1.5 0  12 1.5 0  12.5 1.5 0  13 1.5 0  13.5 1.5 0  14 1.5 0  14.5 1.5 0  15 1.5 0  15.5 1.5 0  16 1.5 0  16.5 1.5 0  17 1.5 0  17.5 1.5 0  18 1.5 0  18.5 1.5 0  19 1.5 0  19.5 1.5 0  20 1.5 0  0 2 0  0.5 2 0  1 2 0  1.5 2 0  2 2 0  2.5 2 0  3 2 0  3.5 2 0  4 2 0  4.5 2 0  5 2 0  5.5 2 0  6 2 0  6.5 2 0  7 2 0  7.5 2 0  8 2 0  8.5 2 0  9 2 0  9.5 2 0  10 2 0  10.5 2 0  11 2 0  11.5 2 0  12 2 0  12.5 2 0  13 2 0  13.5 2 0  14 2 0  14.5 2 0  15 2 0  15.5 2 0  16 2 0  16.5 2 0  17 2 0  17.5 2 0  18 2 0  18.5 2 0  19 2 0  19.5 2 0  20 2 0  0 2.5 0  0.5 2.5 0  1 2.5 0  1.5 2.5 0  2 2.5 0  2.5 2.5 0  3 2.5 0  3.5 2.5 0  4 2.5 0  4.5 2.5 0  5 2.5 0  5.5 2.5 0  6 2.5 0  6.5 2.5 0  7 2.5 0  7.5 2.5 0  8 2.5 0  8.5 2.5 0  9 2.5 0  9.5 2.5 0  10 2.5 0  10.5 2.5 0  11 2.5 0  11.5 2.5 0  12 2.5 0  12.5 2.5 0  13 2.5 0  13.5 2.5 0  14 2.5 0  14.5 2.5 0  15 2.5 0  15.5 2.5 0  16 2.5 0  16.5 2.5 0  17 2.5 0  17.5 2.5 0  18 2.5 0  18.5 2.5 0  19 2.5 0  19.5 2.5 0  20 2.5 0  0 3 0  0.5 3 0  1 3 0  1.5 3 0  2 3 0  2.5 3 0  3 3 0  3.5 3 0  4 3 0  4.5 3 0  5 3 0  5.5 3 0  6 3 0  6.5 3 0  7 3 0  7.5 3 0  8 3 0  8.5 3 0  9 3 0  9.5 3 0  10 3 0  10.5 3 0  11 3 0  11.5 3 0  12 3 0  12.5 3 0  13 3 0  13.5 3 0  14 3 0  14.5 3 0  15 3 0  15.5 3 0  16 3 0  16.5 3 0  17 3 0  17.5 3 0  18 3 0  18.5 3 0  19 3 0  19.5 3 0  20 3 0  0 3.5 0  0.5 3.5 0  1 3.5 0  1.5 3.5 0  2 3.5 0  2.5 3.5 0  3 3.5 0  3.5 3.5 0  4 3.5 0  4.5 3.5 0  5 3.5 0  5.5 3.5 0  6 3.5 0  6.5 3.5 0  7 3.5 0  7.5 3.5 0  8 3.5 0  8.5 3.5 0  9 3.5 0  9.5 3.5 0  10 3.5 0  10.5 3.5 0  11 3.5 0  11.5 3.5 0  12 3.5 0  12.5 3.5 0  13 3.5 0  13.5 3.5 0  14 3.5 0  14.5 3.5 0  15 3.5 0  15.5 3.5 0  16 3.5 0  16.5 3.5 0  17 3.5 0  17.5 3.5 0  18 3.5 0  18.5 3.5 0  19 3.5 0  19.5 3.5 0  20 3.5 0  0 4 0  0.5 4 0  1 4 0  1.5 4 0  2 4 0  2.5 4 0  3 4 0  3.5 4 0  4 4 0  4.5 4 0  5 4 0  5.5 4 0  6 4 0  6.5 4 0  7 4 0  7.5 4 0  8 4 0  8.5 4 0  9 4 0  9.5 4 0  10 4 0  10.5 4 0  11 4 0  11.5 4 0  12 4 0  12.5 4 0  13 4 0  13.5 4 0  14 4 0  14.5 4 0  15 4 0  15.5 4 0  16 4 0  16.5 4 0  17 4 0  17.5 4 0  18 4 0  18.5 4 0  19 4 0  19.5 4 0  20 4 0  0 4.5 0  0.5 4.5 0  1 4.5 0  1.5 4.5 0  2 4.5 0  2.5 4.5 0  3 4.5 0  3.5 4.5 0  4 4.5 0  4.5 4.5 0  5 4.5 0  5.5 4.5 0  6 4.5 0  6.5 4.5 0  7 4.5 0  7.5 4.5 0  8 4.5 0  8.5 4.5 0  9 4.5 0  9.5 4.5 0  10 4.5 0  10.5 4.5 0  11 4.5 0  11.5 4.5 0  12 4.5 0  12.5 4.5 0  13 4.5 0  13.5 4.5 0  14 4.5 0  14.5 4.5 0  15 4.5 0  15.5 4.5 0  16 4.5 0  16.5 4.5 0  17 4.5 0  17.5 4.5 0  18 4.5 0  18.5 4.5 0  19 4.5 0  19.5 4.5 0  20 4.5 0  0 5 0  0.5 5 0  1 5 0  1.5 5 0  2 5 0  2.5 5 0  3 5 0  3.5 5 0  4 5 0  4.5 5 0  5 5 0  5.5 5 0  6 5 0  6.5 5 0  7 5 0  7.5 5 0  8 5 0  8.5 5 0  9 5 0  9.5 5 0  10 5 0  10.5 5 0  11 5 0  11.5 5 0  12 5 0  12.5 5 0  13 5 0  13.5 5 0  14 5 0  14.5 5 0  15 5 0  15.5 5 0  16 5 0  16.5 5 0  17 5 0  17.5 5 0  18 5 0  18.5 5 0  19 5 0  19.5 5 0  20 5 0  0 5.5 0  0.5 5.5 0  1 5.5 0  1.5 5.5 0  2 5.5 0  2.5 5.5 0  3 5.5 0  3.5 5.5 0  4 5.5 0  4.5 5.5 0  5 5.5 0  5.5 5.5 0  6 5.5 0  6.5 5.5 0  7 5.5 0  7.5 5.5 0  8 5.5 0  8.5 5.5 0  9 5.5 0  9.5 5.5 0  10 5.5 0  10.5 5.5 0  11 5.5 0  11.5 5.5 0  12 5.5 0  12.5 5.5 0  13 5.5 0  13.5 5.5 0  14 5.5 0  14.5 5.5 0  15 5.5 0  15.5 5.5 0  16 5.5 0  16.5 5.5 0  17 5.5 0  17.5 5.5 0  18 5.5 0  18.5 5.5 0  19 5.5 0  19.5 5.5 0  20 5.5 0  0 6 0  0.5 6 0  1 6 0  1.5 6 0  2 6 0  2.5 6 0  3 6 0  3.5 6 0  4 6 0  4.5 6 0  5 6 0  5.5 6 0  6 6 0  6.5 6 0  7 6 0  7.5 6 0  8 6 0  8.5 6 0  9 6 0  9.5 6 0  10 6 0  10.5 6 0  11 6 0  11.5 6 0  12 6 0  12.5 6 0  13 6 0  13.5 6 0  14 6 0  14.5 6 0  15 6 0  15.5 6 0  16 6 0  16.5 6 0  17 6 0  17.5 6 0  18 6 0  18.5 6 0  19 6 0  19.5 6 0  20 6 0  0 6.5 0  0.5 6.5 0  1 6.5 0  1.5 6.5 0  2 6.5 0  2.5 6.5 0  3 6.5 0  3.5 6.5 0  4 6.5 0  4.5 6.5 0  5 6.5 0  5.5 6.5 0  6 6.5 0  6.5 6.5 0  7 6.5 0  7.5 6.5 0  8 6.5 0  8.5 6.5 0  9 6.5 0  9.5 6.5 0  10 6.5 0  10.5 6.5 0  11 6.5 0  11.5 6.5 0  12 6.5 0  12.5 6.5 0  13 6.5 0  13.5 6.5 0  14 6.5 0  14.5 6.5 0  15 6.5 0  15.5 6.5 0  16 6.5 0  16.5 6.5 0  17 6.5 0  17.5 6.5 0  18 6.5 0  18.5 6.5 0  19 6.5 0  19.5 6.5 0  20 6.5 0  0 7 0  0.5 7 0  1 7 0  1.5 7 0  2 7 0  2.5 7 0  3 7 0  3.5 7 0  4 7 0  4.5 7 0  5 7 0  5.5 7 0  6 7 0  6.5 7 0  7 7 0  7.5 7 0  8 7 0  8.5 7 0  9 7 0  9.5 7 0  10 7 0  10.5 7 0  11 7 0  11.5 7 0  12 7 0  12.5 7 0  13 7 0  13.5 7 0  14 7 0  14.5 7 0  15 7 0  15.5 7 0  16 7 0  16.5 7 0  17 7 0  17.5 7 0  18 7 0  18.5 7 0  19 7 0  19.5 7 0  20 7 0  0 7.5 0  0.5 7.5 0  1 7.5 0  1.5 7.5 0  2 7.5 0  2.5 7.5 0  3 7.5 0  3.5 7.5 0  4 7.5 0  4.5 7.5 0  5 7.5 0  5.5 7.5 0  6 7.5 0  6.5 7.5 0  7 7.5 0  7.5 7.5 0  8 7.5 0  8.5 7.5 0  9 7.5 0  9.5 7.5 0  10 7.5 0  10.5 7.5 0  11 7.5 0  11.5 7.5 0  12 7.5 0  12.5 7.5 0  13 7.5 0  13.5 7.5 0  14 7.5 0  14.5 7.5 0  15 7.5 0  15.5 7.5 0  16 7.5 0  16.5 7.5 0  17 7.5 0  17.5 7.5 0  18 7.5 0  18.5 7.5 0  19 7.5 0  19.5 7.5 0  20 7.5 0  0 8 0  0.5 8 0  1 8 0  1.5 8 0  2 8 0  2.5 8 0  3 8 0  3.5 8 0  4 8 0  4.5 8 0  5 8 0  5.5 8 0  6 8 0  6.5 8 0  7 8 0  7.5 8 0  8 8 0  8.5 8 0  9 8 0  9.5 8 0  10 8 0  10.5 8 0  11 8 0  11.5 8 0  12 8 0  12.5 8 0  13 8 0  13.5 8 0  14 8 0  14.5 8 0  15 8 0  15.5 8 0  16 8 0  16.5 8 0  17 8 0  17.5 8 0  18 8 0  18.5 8 0  19 8 0  19.5 8 0  20 8 0  0 8.5 0  0.5 8.5 0  1 8.5 0  1.5 8.5 0  2 8.5 0  2.5 8.5 0  3 8.5 0  3.5 8.5 0  4 8.5 0  4.5 8.5 0  5 8.5 0  5.5 8.5 0  6 8.5 0  6.5 8.5 0  7 8.5 0  7.5 8.5 0  8 8.5 0  8.5 8.5 0  9 8.5 0  9.5 8.5 0  10 8.5 0  10.5 8.5 0  11 8.5 0  11.5 8.5 0  12 8.5 0  12.5 8.5 0  13 8.5 0  13.5 8.5 0  14 8.5 0  14.5 8.5 0  15 8.5 0  15.5 8.5 0  16 8.5 0  16.5 8.5 0  17 8.5 0  17.5 8.5 0  18 8.5 0  18.5 8.5 0  19 8.5 0  19.5 8.5 0  20 8.5 0  0 9 0  0.5 9 0  1 9 0  1.5 9 0  2 9 0  2.5 9 0  3 9 0  3.5 9 0  4 9 0  4.5 9 0  5 9 0  5.5 9 0  6 9 0  6.5 9 0  7 9 0  7.5 9 0  8 9 0  8.5 9 0  9 9 0  9.5 9 0  10 9 0  10.5 9 0  11 9 0  11.5 9 0  12 9 0  12.5 9 0  13 9 0  13.5 9 0  14 9 0  14.5 9 0  15 9 0  15.5 9 0  16 9 0  16.5 9 0  17 9 0  17.5 9 0  18 9 0  18.5 9 0  19 9 0  19.5 9 0  20 9 0  0 9.5 0  0.5 9.5 0  1 9.5 0  1.5 9.5 0  2 9.5 0  2.5 9.5 0  3 9.5 0  3.5 9.5 0  4 9.5 0  4.5 9.5 0  5 9.5 0  5.5 9.5 0  6 9.5 0  6.5 9.5 0  7 9.5 0  7.5 9.5 0  8 9.5 0  8.5 9.5 0  9 9.5 0  9.5 9.5 0  10 9.5 0  10.5 9.5 0  11 9.5 0  11.5 9.5 0  12 9.5 0  12.5 9.5 0  13 9.5 0  13.5 9.5 0  14 9.5 0  14.5 9.5 0  15 9.5 0  15.5 9.5 0  16 9.5 0  16.5 9.5 0  17 9.5 0  17.5 9.5 0  18 9.5 0  18.5 9.5 0  19 9.5 0  19.5 9.5 0  20 9.5 0  0 10 0  0.5 10 0  1 10 0  1.5 10 0  2 10 0  2.5 10 0  3 10 0  3.5 10 0  4 10 0  4.5 10 0  5 10 0  5.5 10 0  6 10 0  6.5 10 0  7 10 0  7.5 10 0  8 10 0  8.5 10 0  9 10 0  9.5 10 0  10 10 0  10.5 10 0  11 10 0  11.5 10 0  12 10 0  12.5 10 0  13 10 0  13.5 10 0  14 10 0  14.5 10 0  15 10 0  15.5 10 0  16 10 0  16.5 10 0  17 10 0  17.5 10 0  18 10 0  18.5 10 0  19 10 0  19.5 10 0  20 10 0  0 10.5 0  0.5 10.5 0  1 10.5 0  1.5 10.5 0  2 10.5 0  2.5 10.5 0  3 10.5 0  3.5 10.5 0  4 10.5 0  4.5 10.5 0  5 10.5 0  5.5 10.5 0  6 10.5 0  6.5 10.5 0  7 10.5 0  7.5 10.5 0  8 10.5 0  8.5 10.5 0  9 10.5 0  9.5 10.5 0  10 10.5 0  10.5 10.5 0  11 10.5 0  11.5 10.5 0  12 10.5 0  12.5 10.5 0  13 10.5 0  13.5 10.5 0  14 10.5 0  14.5 10.5 0  15 10.5 0  15.5 10.5 0  16 10.5 0  16.5 10.5 0  17 10.5 0  17.5 10.5 0  18 10.5 0  18.5 10.5 0  19 10.5 0  19.5 10.5 0  20 10.5 0  0 11 0  0.5 11 0  1 11 0  1.5 11 0  2 11 0  2.5 11 0  3 11 0  3.5 11 0  4 11 0  4.5 11 0  5 11 0  5.5 11 0  6 11 0  6.5 11 0  7 11 0  7.5 11 0  8 11 0  8.5 11 0  9 11 0  9.5 11 0  10 11 0  10.5 11 0  11 11 0  11.5 11 0  12 11 0  12.5 11 0  13 11 0  13.5 11 0  14 11 0  14.5 11 0  15 11 0  15.5 11 0  16 11 0  16.5 11 0  17 11 0  17.5 11 0  18 11 0  18.5 11 0  19 11 0  19.5 11 0  20 11 0  0 11.5 0  0.5 11.5 0  1 11.5 0  1.5 11.5 0  2 11.5 0  2.5 11.5 0  3 11.5 0  3.5 11.5 0  4 11.5 0  4.5 11.5 0  5 11.5 0  5.5 11.5 0  6 11.5 0  6.5 11.5 0  7 11.5 0  7.5 11.5 0  8 11.5 0  8.5 11.5 0  9 11.5 0  9.5 11.5 0  10 11.5 0  10.5 11.5 0  11 11.5 0  11.5 11.5 0  12 11.5 0  12.5 11.5 0  13 11.5 0  13.5 11.5 0  14 11.5 0  14.5 11.5 0  15 11.5 0  15.5 11.5 0  16 11.5 0  16.5 11.5 0  17 11.5 0  17.5 11.5 0  18 11.5 0  18.5 11.5 0  19 11.5 0  19.5 11.5 0  20 11.5 0  0 12 0  0.5 12 0  1 12 0  1.5 12 0  2 12 0  2.5 12 0  3 12 0  3.5 12 0  4 12 0  4.5 12 0  5 12 0  5.5 12 0  6 12 0  6.5 12 0  7 12 0  7.5 12 0  8 12 0  8.5 12 0  9 12 0  9.5 12 0  10 12 0  10.5 12 0  11 12 0  11.5 12 0  12 12 0  12.5 12 0  13 12 0  13.5 12 0  14 12 0  14.5 12 0  
[...]
<PointData  Vectors="f_2975-0"> 
<DataArray  type="Float64"  Name="f_2975-0"  NumberOfComponents="3" format="ascii">0.0000000000000000e+00 0.0000000000000000e+00 0.0000000000000000e+00  9.6953493674769882e-06 0.0000000000000000e+00 0.0000000000000000e+00  1.2156552518213597e-05 0.0000000000000000e+00 0.0000000000000000e+00  -4.1196023635812481e-06 0.0000000000000000e+00 0.0000000000000000e+00  -4.8382887825880635e-05 0.0000000000000000e+00 0.0000000000000000e+00  -1.2939405569448268e-04 0.0000000000000000e+00 0.0000000000000000e+00  -2.5542963918934121e-04 0.0000000000000000e+00 0.0000000000000000e+00  -4.3413663177763802e-04 0.0000000000000000e+00 0.0000000000000000e+00  -6.7236100181639915e-04 0.0000000000000000e+00 0.0000000000000000e+00  -9.7595293274314909e-04 0.0000000000000000e+00 0.0000000000000000e+00  -1.3495434761972272e-03 0.0000000000000000e+00 0.0000000000000000e+00  -1.7962870967895028e-03 0.0000000000000000e+00 0.0000000000000000e+00  -2.3175644586158040e-03 0.0000000000000000e+00 0.0000000000000000e+00  -2.9126394915898039e-03 0.0000000000000000e+00 0.0000000000000000e+00  -3.5782643945020953e-03 0.0000000000000000e+00 0.0000000000000000e+00  -4.3082258201912506e-03 0.0000000000000000e+00 0.0000000000000000e+00  -5.0928250438756024e-03 0.0000000000000000e+00 0.0000000000000000e+00  -5.9182844148145466e-03 0.0000000000000000e+00 0.0000000000000000e+00  -6.7660717921701440e-03 0.0000000000000000e+00 0.0000000000000000e+00  -7.6121339024724198e-03 0.0000000000000000e+00 0.0000000000000000e+00  -8.4260285346264216e-03 0.0000000000000000e+00 0.0000000000000000e+00  -9.1699440761822439e-03 0.0000000000000000e+00 0.0000000000000000e+00  -9.7975929113132739e-03 0.0000000000000000e+00 0.0000000000000000e+00  -1.0252962405126412e-02 0.0000000000000000e+00 0.0000000000000000e+00  -1.0468903265827528e-02 0.0000000000000000e+00 0.0000000000000000e+00  -1.0365529575485236e-02 0.0000000000000000e+00 0.0000000000000000e+00  -9.8483971300702446e-03 0.0000000000000000e+00 0.0000000000000000e+00  -8.8064161387893768e-03 0.0000000000000000e+00 0.0000000000000000e+00  -7.1094397030875478e-03 0.0000000000000000e+00 0.0000000000000000e+00  -4.6054492702338554e-03 0.0000000000000000e+00 0.0000000000000000e+00  -1.1172301719136891e-03 0.0000000000000000e+00 0.0000000000000000e+00  3.5616089612707249e-03 0.0000000000000000e+00 0.0000000000000000e+00  9.6714748669719294e-03 0.0000000000000000e+00 0.0000000000000000e+00  1.7492768786752756e-02 0.0000000000000000e+00 0.0000000000000000e+00  2.7353407226910979e-02 0.0000000000000000e+00 0.0000000000000000e+00  3.9638466590741148e-02 0.0000000000000000e+00 0.0000000000000000e+00  5.4802824047081200e-02 0.0000000000000000e+00 0.0000000000000000e+00  7.3388177434953447e-02 0.0000000000000000e+00 0.0000000000000000e+00  9.6046932343601274e-02 0.0000000000000000e+00 0.0000000000000000e+00  1.2357894928025420e-01 0.0000000000000000e+00 0.0000000000000000e+00  1.5700006490122809e-01 0.0000000000000000e+00 0.0000000000000000e+00  0.0000000000000000e+00 9.6953493668600246e-06 0.0000000000000000e+00  1.6867180026445641e-05 1.6867180027004551e-05 0.0000000000000000e+00  2.3956633285724949e-05 3.3679501567844807e-05 0.0000000000000000e+00  1.2616457600173427e-05 6.0242161982733410e-05 0.0000000000000000e+00  -2.6512592852000015e-05 9.6891786904219578e-05 0.0000000000000000e+00  -1.0231438943783078e-04 1.4366703370118178e-04 0.0000000000000000e+00  -2.2311705855487693e-04 2.0043813673841857e-04 0.0000000000000000e+00  -3.9659074632189816e-04 2.6698303335417060e-04 0.0000000000000000e+00  -6.2959533024329565e-04 3.4301359930553253e-04 0.0000000000000000e+00  -9.2799261788267687e-04 4.2818215005735103e-04 0.0000000000000000e+00  -1.2964256604097450e-03 5.2208106388443190e-04 0.0000000000000000e+00  -1.7380624522632974e-03 6.2423996716086025e-04 0.0000000000000000e+00  -2.2542992893957092e-03 7.3412198633617638e-04 0.0000000000000000e+00  -2.8444181412957173e-03 8.5111963418448434e-04 0.0000000000000000e+00  -3.5051918097888184e-03 9.7455060722669397e-04 0.0000000000000000e+00  -4.2304301634131219e-03 1.1036536832743969e-03 0.0000000000000000e+00  -5.0104602623240995e-03 1.2375848868388874e-03 0.0000000000000000e+00  -5.8315326744709595e-03 1.3754140917584972e-03 0.0000000000000000e+00  -6.6751456773812331e-03 1.5161222401248934e-03 0.0000000000000000e+00  -7.5172782729097561e-03 1.6585993687386021e-03 0.0000000000000000e+00  -8.3275219183190866e-03 1.8016436455960062e-03 0.0000000000000000e+00  -9.0680994633916441e-03 1.9439616281165285e-03 0.0000000000000000e+00  -9.6927577992469392e-03 2.0841699597209159e-03 0.0000000000000000e+00  -1.0145517927573426e-02 2.2207987209145242e-03 0.0000000000000000e+00  -1.0359262225269139e-02 2.3522966425596394e-03 0.0000000000000000e+00  -1.0254133177246355e-02 2.4770383707966091e-03 0.0000000000000000e+00  -9.7357101967920877e-03 2.5933339414570054e-03 0.0000000000000000e+00  -8.6929205556387380e-03 2.6994405730398599e-03 0.0000000000000000e+00  -6.9956258028886593e-03 2.7935768167091017e-03 0.0000000000000000e+00  -4.4918048023708523e-03 2.8739390041659070e-03 0.0000000000000000e+00  -1.0042263974867109e-03 2.9387198041906240e-03 0.0000000000000000e+00  3.6735346455470975e-03 2.9861285301303313e-03 0.0000000000000000e+00  9.7819404990279451e-03 3.0144126179808663e-03 0.0000000000000000e+00  1.7601474180710067e-02 3.0218793721252918e-03 0.0000000000000000e+00  2.7460164279129951e-02 3.0069165491743693e-03 0.0000000000000000e+00  3.9743226554110278e-02 2.9680095803923195e-03 0.0000000000000000e+00  5.4905669647515684e-02 2.9037534882143520e-03 0.0000000000000000e+00  7.3489139519236635e-02 2.8128679288266898e-03 0.0000000000000000e+00  9.6144948049423917e-02 2.6942867379615263e-03 0.0000000000000000e+00  1.2366601906308064e-01 2.5476566882278767e-03 0.0000000000000000e+00  1.5702824641993343e-01 2.3752186743540948e-03 0.0000000000000000e+00  0.0000000000000000e+00 1.2156552520131854e-05 0.0000000000000000e+00  3.3679501567504713e-05 2.3956633291980013e-05 0.0000000000000000e+00  5.6671633839405793e-05 5.6671633839903117e-05 0.0000000000000000e+00  6.0974822311446233e-05 1.0986501112718295e-04 0.0000000000000000e+00  3.7483325245064835e-05 1.8344998484868714e-04 0.0000000000000000e+00  -2.2640902000854088e-05 2.7725706882507378e-04 0.0000000000000000e+00  -1.2774201213258432e-04 3.9099080210041546e-04 0.0000000000000000e+00  -2.8551694172933458e-04 5.2422389671076151e-04 0.0000000000000000e+00  -5.0285364652444470e-04 6.7640222742245510e-04 0.0000000000000000e+00  -7.8564365935510202e-04 8.4684819586333866e-04 0.0000000000000000e+00  -1.1385632175543816e-03 1.0347598963378959e-03 0.0000000000000000e+00  -1.5648185280682267e-03 1.2392069161415839e-03 0.0000000000000000e+00  -2.0658502411722594e-03 1.4591240169015962e-03 0.0000000000000000e+00  -2.6409915589071299e-03 1.6933036520664785e-03 0.0000000000000000e+00  -3.2870738299493061e-03 1.9403879867985021e-03 0.0000000000000000e+00  -3.9979729647911522e-03 2.1988609151506388e-03 0.0000000000000000e+00  -4.7640895026776998e-03 2.4670404893353190e-03 0.0000000000000000e+00  -5.5717546289714721e-03 2.7430721498331971e-03 0.0000000000000000e+00  -6.4025538246347173e-03 3.0249231461629837e-03 0.0000000000000000e+00  -7.2325590567185790e-03 3.3103785524662230e-03 0.0000000000000000e+00  -8.0314593925423072e-03 3.5970392991407519e-03 0.0000000000000000e+00  -8.7615785068506005e-03 3.8823226575970845e-03 0.0000000000000000e+00  -9.3767655695045360e-03 4.1634656241608800e-03 0.0000000000000000e+00  -9.8211432086031877e-03 4.4375316481310625e-03 0.0000000000000000e+00  -1.0027692316539287e-02 4.7014211337672758e-03 0.0000000000000000e+00  -9.9166479723828971e-03 4.9518861125668013e-03 0.0000000000000000e+00  -9.3936731114131859e-03 5.1855494255531901e-03 0.0000000000000000e+00  -8.3477659883213675e-03 5.3989286702787161e-03 0.0000000000000000e+00  -6.6488428552344400e-03 5.5884650470294922e-03 0.0000000000000000e+00  -4.1449170518670373e-03 5.7505570783015414e-03 0.0000000000000000e+00  -6.5876763404550088e-04 5.8815989665555526e-03 0.0000000000000000e+00  4.0160485793103344e-03 5.9780230927324544e-03 0.0000000000000000e+00  1.0120043113692906e-02 6.0363458348380531e-03 0.0000000000000000e+00  1.7933781119739638e-02 6.0532155099949168e-03 0.0000000000000000e+00  2.7785402602872804e-02 6.0254609101316019e-03 0.0000000000000000e+00  4.0060248398974985e-02 5.9501390222610950e-03 0.0000000000000000e+00  5.5213421169196794e-02 5.8245820820731252e-03 0.0000000000000000e+00  7.3786519003246495e-02 5.6464461516610815e-03 0.0000000000000000e+00  9.6430423697153420e-02 5.4137401828678426e-03 0.0000000000000000e+00  1.2393700932560441e-01 5.1245910813268666e-03 0.0000000000000000e+00  1.5728421416406704e-01 4.7751576516627424e-03 0.0000000000000000e+00  0.0000000000000000e+00 -4.1196023589982739e-06 0.0000000000000000e+00  6.0242161984776500e-05 1.2616457599930359e-05 0.0000000000000000e+00  1.0986501113089294e-04 6.0974822311852775e-05 0.0000000000000000e+00  1.4049060010833738e-04 1.4049060010372835e-04 0.0000000000000000e+00  1.4322316364039154e-04 2.5084209929802958e-04 0.0000000000000000e+00  1.0929116752234526e-04 3.9165058221977939e-04 0.0000000000000000e+00  3.0364563685639634e-05 5.6240006683454106e-04 0.0000000000000000e+00  -1.0126561372258804e-04 7.6241908653591273e-04 0.0000000000000000e+00  -2.9251498034890786e-04 9.9087168619088313e-04 0.0000000000000000e+00  -5.4931425151638960e-04 1.2467493431160093e-03 0.0000000000000000e+00  -8.7638932416070554e-04 1.5288623363467094e-03 0.0000000000000000e+00  -1.2770067655822723e-03 1.8358300207587804e-03 0.0000000000000000e+00  -1.7526789149168468e-03 2.1660699585991892e-03 0.0000000000000000e+00  -2.3028226283764415e-03 2.5177861832700460e-03 0.0000000000000000e+00  -2.9243653391249490e-03 2.8889570293891501e-03 0.0000000000000000e+00  -3.6112916764772388e-03 3.2773230295992948e-03 0.0000000000000000e+00  -4.3541234224147435e-03 3.6803754091691530e-03 0.0000000000000000e+00  -5.1393250628231227e-03 4.0953457342397821e-03 0.0000000000000000e+00  -5.9486265772103917e-03 4.5191972962600356e-03 0.0000000000000000e+00  -6.7582543388824559e-03 4.9486188461057377e-03 0.0000000000000000e+00  -7.5380599730145203e-03 5.3800213207432371e-03 0.0000000000000000e+00  -8.2505356103476021e-03 5.8095382306084875e-03 0.0000000000000000e+00  -8.8497019985678722e-03 6.2330303903055167e-03 0.0000000000000000e+00  -9.2798531497956509e-03 6.6460956750508992e-03 0.0000000000000000e+00  -9.4741372878656503e-03 7.0440844637920507e-03 0.0000000000000000e+00  -9.3529483811158279e-03 7.4221213818648941e-03 0.0000000000000000e+00  -8.8220949246879104e-03 7.7751338738930292e-03 0.0000000000000000e+00  -7.7707020780203436e-03 8.0978880139091231e-03 0.0000000000000000e+00  -6.0687886705517117e-03 8.3850317846776400e-03 0.0000000000000000e+00  -3.5644404089546331e-03 8.6311458214193230e-03 0.0000000000000000e+00  -8.0472612562859050e-05 8.8308013028487592e-03 0.0000000000000000e+00  4.5895633342147623e-03 8.9786242679690629e-03 0.0000000000000000e+00  1.0686230879349928e-02 9.0693651151418520e-03 0.0000000000000000e+00  1.8490196704477851e-02 9.0979713494589443e-03 0.0000000000000000e+00  2.8329751950540827e-02 9.0596606263858327e-03 0.0000000000000000e+00  4.0590432830395880e-02 8.9499891173271638e-03 0.0000000000000000e+00  5.5727567908595795e-02 8.7649042609215227e-03 0.0000000000000000e+00  7.4282985190564699e-02 8.5007496663065413e-03 0.0000000000000000e+00  9.6907748539972555e-02 8.1541170149266491e-03 0.0000000000000000e+00  1.2439376126744749e-01 7.7212332945690420e-03 0.0000000000000000e+00  1.5771854376556046e-01 7.1961799707650279e-03 0.0000000000000000e+00  0.0000000000000000e+00 -4.8382887824788674e-05 0.0000000000000000e+00  9.6891786901462669e-05 -2.6512592850129526e-05 0.0000000000000000e+00  1.8344998485049982e-04 3.7483325241974913e-05 0.0000000000000000e+00  2.5084209930282473e-04 1.4322316363591078e-04 0.0000000000000000e+00  2.9024346749698685e-04 2.9024346749090675e-04 0.0000000000000000e+00  2.9293318550106557e-04 4.7798930158229457e-04 0.0000000000000000e+00  2.5059264721196995e-04 7.0574151388872592e-04 0.0000000000000000e+00  1.5549983591677164e-04 9.7258997883190783e-04 0.0000000000000000e+00  7.0789940764505265e-07 1.2774181755224017e-03 0.0000000000000000e+00  -2.1976144459343020e-04 1.6188895011405833e-03 0.0000000000000000e+00  -5.1069769030421554e-04 1.9954329295806331e-03 0.0000000000000000e+00  -8.7544736725245003e-04 2.4052276383961955e-03 0.0000000000000000e+00  -1.3156197242034573e-03 2.8461867253827674e-03 0.0000000000000000e+00  -1.8307460707078127e-03 3.3159403024095977e-03 0.0000000000000000e+00  -2.4178862830413722e-03 3.8118183674659277e-03 0.0000000000000000e+00  -3.0711755972965861e-03 4.3308339566973048e-03 0.0000000000000000e+00  -3.7813043720354949e-03 4.8696671673173104e-03 0.0000000000000000e+00  -4.5349229986610690e-03 5.4246507204567225e-03 0.0000000000000000e+00  -5.3139635336369208e-03 5.9917578023731301e-03 0.0000000000000000e+00  -6.0948688620993327e-03 6.5665929847465356e-03 0.0000000000000000e+00  -6.8477191843270375e-03 7.1443870778485317e-03 0.0000000000000000e+00  -7.5352442144493688e-03 7.7199968127713518e-03 0.0000000000000000e+00  -8.1117075157603538e-03 8.2879102743357667e-03 0.0000000000000000e+00  -8.5216466273389056e-03 8.8422590106035648e-03 0.0000000000000000e+00  -8.6984487403993001e-03 9.3768377203636427e-03 0.0000000000000000e+00  -8.5627362288266933e-03 9.8851323586222166e-03 0.0000000000000000e+00  -8.0205287463714497e-03 1.0360357393174632e-02 0.0000000000000000e+00  -6.9611380816811700e-03 1.0795502781248755e-02 0.0000000000000000e+00  -5.2547374147405698e-03 1.1183390999975113e-02 0.0000000000000000e+00  -2.7495264933518515e-03 1.1516744140716668e-02 0.0000000000000000e+00  7.3161369022842540e-04 1.1788260639775753e-02 0.0000000000000000e+00  5.3951221912257345e-03 1.1990700627274932e-02 0.0000000000000000e+00  1.1481615972706413e-02 1.2116978057814080e-02 0.0000000000000000e+00  1.9271883829984342e-02 1.2160256562840218e-02 0.0000000000000000e+00  2.9094410696562392e-02 1.2114043861156927e-02 0.0000000000000000e+00  4.1334997031938707e-02 1.1972275272205830e-02 0.0000000000000000e+00  5.6449295869711875e-02 1.1729367059910010e-02 0.0000000000000000e+00  7.4979486480498916e-02 1.1380198095229511e-02 0.0000000000000000e+00  9.7576915769439859e-02 1.0919936656518171e-02 0.0000000000000000e+00  1.2503348219767324e-01 1.0343593481342270e-02 0.0000000000000000e+00  1.5832605669897487e-01 9.6453381119602881e-03 0.0000000000000000e+00  0.0000000000000000e+00 -1.2939405569243297e-04 0.0000000000000000e+00  1.4366703370365412e-04 -1.0231438943855283e-04 0.0000000000000000e+00  2.7725706882744059e-04 -2.2640902008755174e-05 0.0000000000000000e+00  3.9165058222414211e-04 1.0929116751794844e-04 0.0000000000000000e+00  4.7798930158168623e-04 2.9293318550003352e-04 0.0000000000000000e+00  5.2758013761723622e-04 5.2758013762048482e-04 0.0000000000000000e+00  5.3211023335298713e-04 8.1232777709030883e-04 0.0000000000000000e+00  4.8384032138654089e-04 1.1460427619389261e-03 0.0000000000000000e+00  3.7578597633072932e-04 1.5273423051436260e-03 0.0000000000000000e+00  2.0191171572189610e-04 1.9545757504796906e-03 0.0000000000000000e+00  -4.2649310369536283e-05 2.4258054754009049e-03 0.0000000000000000e+00  -3.6134212201396990e-04 2.9387865435370735e-03 0.0000000000000000e+00  -7.5589663134662617e-04 3.4909452222152667e-03 0.0000000000000000e+00  -1.2259878833316648e-03 4.0793567428322550e-03 0.0000000000000000e+00  -1.7688431954019348e-03 4.7007228144716057e-03 0.0000000000000000e+00  -2.3787892148150677e-03 5.3513495018695486e-03 0.0000000000000000e+00  -3.0467314801414045e-03 6.0271261752289675e-03 0.0000000000000000e+00  -3.7595585731593586e-03 6.7235063349635723e-03 0.0000000000000000e+00  -4.4994623471708651e-03 7.4354912080035283e-03 0.0000000000000000e+00  -5.2431649579525339e-03 8.1576170996539733e-03 0.0000000000000000e+00  -5.9610424122510230e-03 8.8839475621955745e-03 0.0000000000000000e+00  -6.6161329564008702e-03 9.6080715040188745e-03 0.0000000000000000e+00  -7.1630166761364770e-03 1.0323108404273881e-02 0.0000000000000000e+00  -7.5465499273710390e-03 1.1021721811616899e-02 0.0000000000000000e+00  -7.7004343456860648e-03 1.1696142282829773e-02 0.0000000000000000e+00  -7.5455947596385015e-03 1.2338200847463423e-02 0.0000000000000000e+00  -6.9883327801910150e-03 1.2939373957220064e-02 0.0000000000000000e+00  -5.9182123663200680e-03 1.3490840678339387e-02 0.0000000000000000e+00  -4.2056191782851911e-03 1.3983552593055922e-02 0.0000000000000000e+00  -1.6989154764460895e-03 1.4408316467532751e-02 0.0000000000000000e+00  1.7789155296158100e-03 1.4755889181264354e-02 0.0000000000000000e+00  6.4342809180544386e-03 1.5017083637321479e-02 0.0000000000000000e+00  1.2507844889187684e-02 1.5182883275291627e-02 0.0000000000000000e+00  2.0280529821209200e-02 1.5244561166478035e-02 0.0000000000000000e+00  3.0081044356973941e-02 1.5193797015604454e-02 0.0000000000000000e+00  4.2295500157613845e-02 1.5022780820499354e-02 0.0000000000000000e+00  5.7379933232341626e-02 1.4724284153551689e-02 0.0000000000000000e+00  7.5876935781676078e-02 1.4291669037514790e-02 0.0000000000000000e+00  9.8438215270518714e-02 1.3718799062405763e-02 0.0000000000000000e+00  1.2585588996712016e-01 1.2999855786278207e-02 0.0000000000000000e+00  1.5910707125391133e-01 1.2129240296103625e-02 0.0000000000000000e+00  0.0000000000000000e+00 -2.5542963919021654e-04 0.0000000000000000e+00  2.0043813673921196e-04 -2.2311705855790882e-04 0.0000000000000000e+00  3.9099080210372629e-04 -1.2774201213215782e-04 0.0000000000000000e+00  5.6240006683201660e-04 3.0364563681829721e-05 0.0000000000000000e+00  7.0574151388308438e-04 2.5059264721232058e-04 0.0000000000000000e+00  8.1232777708596952e-04 5.3211023334862214e-04 0.0000000000000000e+00  8.7384594807276661e-04 8.7384594807411958e-04 0.0000000000000000e+00  8.8253622499976161e-04 1.2744608560104286e-03 0.0000000000000000e+00  8.3137147828589593e-04 1.7323244990191274e-03 0.0000000000000000e+00  7.1425057316162302e-04 2.2454920261679233e-03 0.0000000000000000e+00  5.2621679080496039e-04 2.8116804023772539e-03 0.0000000000000000e+00  2.6370949224733712e-04 3.4282430994024607e-03 0.0000000000000000e+00  -7.5144119651595121e-05 4.0921433630134113e-03 0.0000000000000000e+00  -4.9019054333695176e-04 4.7999264696557010e-03 0.0000000000000000e+00  -9.7885806688628057e-04 5.5476915638274669e-03 0.0000000000000000e+00  -1.5357043055578320e-03 6.3310637973001396e-03 0.0000000000000000e+00  -2.1518956688043873e-03 7.1451676083635479e-03 0.0000000000000000e+00  -2.8146107385459062e-03 7.9846020936164951e-03 0.0000000000000000e+00  -3.5063589409629011e-03 8.8434195383375516e-03 0.0000000000000000e+00  -4.2042051364353308e-03 9.7151082805544131e-03 0.0000000000000000e+00  -4.8788897464530565e-03 1.0592581183527506e-02 0.0000000000000000e+00  -5.4938326537403133e-03 1.1468171075618669e-02 0.0000000000000000e+00  -6.0040071753833862e-03 1.2333634576582601e-02 0.0000000000000000e+00  -6.3546676790130338e-03 1.3180165757446807e-02 0.0000000000000000e+00  -6.4799105693246414e-03 1.3998421066116385e-02 0.0000000000000000e+00  -6.3010429874400661e-03 1.4778556880793053e-02 0.0000000000000000e+00  -5.7247260619963441e-03 1.5510280913591107e-02 0.0000000000000000e+00  -4.6408491396531257e-03 1.6182918459943005e-02 0.0000000000000000e+00  -2.9200770098671415e-03 1.6785494152233703e-02 0.0000000000000000e+00  -4.1099217757030183e-04 1.7306829398635992e-02 0.0000000000000000e+00  3.0632735030092046e-03 1.7735655026274614e-02 0.0000000000000000e+00  7.7090623174018245e-03 1.8060737737519691e-02 0.0000000000000000e+00  1.3767068556015153e-02 1.8271017727362011e-02 0.0000000000000000e+00  2.1518348274291364e-02 1.8355753037819108e-02 0.0000000000000000e+00  3.1291852007075807e-02 1.8304663709927907e-02 0.0000000000000000e+00  4.3474039186481128e-02 1.8108065330494534