<?xml version="1.0"?>
<VTKFile type="UnstructuredGrid"  version="0.1"  >
<UnstructuredGrid>
<Piece  NumberOfPoints="1681" NumberOfCells="3200">
<Points>
<DataArray  type="Float64"  NumberOfComponents="3"  format="ascii">0 0 0  0.5 0 0  1 0 0  1.5 0 0  2 0 0  2.5 0 0  3 0 0  3.5 0 0  4 0 0  4.5 0 0  5 0 0  5.5 0 0  6 0 0  6.5 0 0  7 0 0  7.5 0 0  8 0 0  8.5 0 0  9 0 0  9.5 0 0  10 0 0  10.5 0 0  11 0 0  11.5 0 0  12 0 0  12.5 0 0  13 0 0  13.5 0 0  14 0 0  14.5 0 0  15 0 0  15.5 0 0  16 0 0  16.5 0 0  17 0 0  17.5 0 0  18 0 0  18.5 0 0  19 0 0  19.5 0 0  20 0 0  0 0.5 0  0.5 0.5 0  1 0.5 0  1.5 0.5 0  2 0.5 0  2.5 0.5 0  3 0.5 0  3.5 0.5 0  4 0.5 0  4.5 0.5 0  5 0.5 0  5.5 0.5 0  6 0.5 0  6.5 0.5 0  7 0.5 0  7.5 0.5 0  8 0.5 0  8.5 0.5 0  9 0.5 0  9.5 0.5 0  10 0.5 0  10.5 0.5 0  11 0.5 0  11.5 0.5 0  12 0.5 0  12.5 0.5 0  13 0.5 0  13.5 0.5 0  14 0.5 0  14.5 0.5 0  15 0.5 0  15.5 0.5 0  16 0.5 0  16.5 0.5 0  17 0.5 0  17.5 0.5 0  18 0.5 0  18.5 0.5 0  19 0.5 0  19.5 0.5 0  20 0.5 0  0 1 0  0.5 1 0  1 1 0  1.5 1 0  2 1 0  2.5 1 0  3 1 0  3.5 1 0  4 1 0  4.5 1 0  5 1 0  5.5 1 0  6 1 0  6.5 1 0  7 1 0  7.5 1 0  8 1 0  8.5 1 0  9 1 0  9.5 1 0  10 1 0  10.5 1 0  11 1 0  11.5 1 0  12 1 0  12.5 1 0  13 1 0  13.5 1 0  14 1 0  14.5 1 0  15 1 0  15.5 1 0  16 1 0  16.5 1 0  17 1 0  17.5 1 0  18 1 0  18.5 1 0  19 1 0  19.5 1 0  20 1 0  0 1.5 0  0.5 1.5 0  1 1.5 0  1.5 1.5 0  2 1.5 0  2.5 1.5 0  3 1.5 0  3.5 1.5 0  4 1.5 0  4.5 1.5 0  5 1.5 0  5.5 1.5 0  6 1.5 0  6.5 1.5 0  7 1.5 0  7.5 1.5 0  8 1.5 0  8.5 1.5 0  9 1.5 0  9.5 1.5 0  10 1.5 0  10.5 1.5 0  11 1.5 0  11.5 1.5 0  12 1.5 0  12.5 1.5 0  13 1.5 0  13.5 1.5 0  14 1.5 0  14.5 1.5 0  15 1.5 0  15.5 1.5 0  16 1.5 0  16.5 1.5 0  17 1.5 0  17.5 1.5 0  18 1.5 0  18.5 1.5 0  19 1.5 0  19.5 1.5 0  20 1.5 0  0 2 0  0.5 2 0  1 2 0  1.5 2 0  2 2 0  2.5 2 0  3 2 0  3.5 2 0  4 2 0  4.5 2 0  5 2 0  5.5 2 0  6 2 0  6.5 2 0  7 2 0  7.5 2 0  8 2 0  8.5 2 0  9 2 0  9.5 2 0  10 2 0  10.5 2 0  11 2 0  11.5 2 0  12 2 0  12.5 2 0  13 2 0  13.5 2 0  14 2 0  14.5 2 0  15 2 0  15.5 2 0  16 2 0  16.5 2 0  17 2 0  17.5 2 0  18 2 0  18.5 2 0  19 2 0  19.5 2 0  20 2 0  0 2.5 0  0.5 2.5 0  1 2.5 0  1.5 2.5 0  2 2.5 0  2.5 2.5 0  3 2.5 0  3.5 2.5 0  4 2.5 0  4.5 2.5 0  5 2.5 0  5.5 2.5 0  6 2.5 0  6.5 2.5 0  7 2.5 0  7.5 2.5 0  8 2.5 0  8.5 2.5 0  9 2.5 0  9.5 2.5 0  10 2.5 0  10.5 2.5 0  11 2.5 0  11.5 2.5 0  12 2.5 0  12.5 2.5 0  13 2.5 0  13.5 2.5 0  14 2.5 0  14.5 2.5 0  15 2.5 0  15.5 2.5 0  16 2.5 0  16.5 2.5 0  17 2.5 0  17.5 2.5 0  18 2.5 0  18.5 2.5 0  19 2.5 0  19.5 2.5 0  20 2.5 0  0 3 0  0.5 3 0  1 3 0  1.5 3 0  2 3 0  2.5 3 0  3 3 0  3.5 3 0  4 3 0  4.5 3 0  5 3 0  5.5 3 0  6 3 0  6.5 3 0  7 3 0  7.5 3 0  8 3 0  8.5 3 0  9 3 0  9.5 3 0  10 3 0  10.5 3 0  11 3 0  11.5 3 0  12 3 0  12.5 3 0  13 3 0  13.5 3 0  14 3 0  14.5 3 0  15 3 0  15.5 3 0  16 3 0  16.5 3 0  17 3 0  17.5 3 0  18 3 0  18.5 3 0  19 3 0  19.5 3 0  20 3 0  0 3.5 0  0.5 3.5 0  1 3.5 0  1.5 3.5 0  2 3.5 0  2.5 3.5 0  3 3.5 0  3.5 3.5 0  4 3.5 0  4.5 3.5 0  5 3.5 0  5.5 3.5 0  6 3.5 0  6.5 3.5 0  7 3.5 0  7.5 3.5 0  8 3.5 0  8.5 3.5 0  9 3.5 0  9.5 3.5 0  10 3.5 0  10.5 3.5 0  11 3.5 0  11.5 3.5 0  12 3.5 0  12.5 3.5 0  13 3.5 0  13.5 3.5 0  14 3.5 0  14.5 3.5 0  15 3.5 0  15.5 3.5 0  16 3.5 0  16.5 3.5 0  17 3.5 0  17.5 3.5 0  18 3.5 0  18.5 3.5 0  19 3.5 0  19.5 3.5 0  20 3.5 0  0 4 0  0.5 4 0  1 4 0  1.5 4 0  2 4 0  2.5 4 0  3 4 0  3.5 4 0  4 4 0  4.5 4 0  5 4 0  5.5 4 0  6 4 0  6.5 4 0  7 4 0  7.5 4 0  8 4 0  8.5 4 0  9 4 0  9.5 4 0  10 4 0  10.5 4 0  11 4 0  11.5 4 0  12 4 0  12.5 4 0  13 4 0  13.5 4 0  14 4 0  14.5 4 0  15 4 0  15.5 4 0  16 4 0  16.5 4 0  17 4 0  17.5 4 0  18 4 0  18.5 4 0  19 4 0  19.5 4 0  20 4 0  0 4.5 0  0.5 4.5 0  1 4.5 0  1.5 4.5 0  2 4.5 0  2.5 4.5 0  3 4.5 0  3.5 4.5 0  4 4.5 0  4.5 4.5 0  5 4.5 0  5.5 4.5 0  6 4.5 0  6.5 4.5 0  7 4.5 0  7.5 4.5 0  8 4.5 0  8.5 4.5 0  9 4.5 0  9.5 4.5 0  10 4.5 0  10.5 4.5 0  11 4.5 0  11.5 4.5 0  12 4.5 0  12.5 4.5 0  13 4.5 0  13.5 4.5 0  14 4.5 0  14.5 4.5 0  15 4.5 0  15.5 4.5 0  16 4.5 0  16.5 4.5 0  17 4.5 0  17.5 4.5 0  18 4.5 0  18.5 4.5 0  19 4.5 0  19.5 4.5 0  20 4.5 0  0 5 0  0.5 5 0  1 5 0  1.5 5 0  2 5 0  2.5 5 0  3 5 0  3.5 5 0  4 5 0  4.5 5 0  5 5 0  5.5 5 0  6 5 0  6.5 5 0  7 5 0  7.5 5 0  8 5 0  8.5 5 0  9 5 0  9.5 5 0  10 5 0  10.5 5 0  11 5 0  11.5 5 0  12 5 0  12.5 5 0  13 5 0  13.5 5 0  14 5 0  14.5 5 0  15 5 0  15.5 5 0  16 5 0  16.5 5 0  17 5 0  17.5 5 0  18 5 0  18.5 5 0  19 5 0  19.5 5 0  20 5 0  0 5.5 0  0.5 5.5 0  1 5.5 0  1.5 5.5 0  2 5.5 0  2.5 5.5 0  3 5.5 0  3.5 5.5 0  4 5.5 0  4.5 5.5 0  5 5.5 0  5.5 5.5 0  6 5.5 0  6.5 5.5 0  7 5.5 0  7.5 5.5 0  8 5.5 0  8.5 5.5 0  9 5.5 0  9.5 5.5 0  10 5.5 0  10.5 5.5 0  11 5.5 0  11.5 5.5 0  12 5.5 0  12.5 5.5 0  13 5.5 0  13.5 5.5 0  14 5.5 0  14.5 5.5 0  15 5.5 0  15.5 5.5 0  16 5.5 0  16.5 5.5 0  17 5.5 0  17.5 5.5 0  18 5.5 0  18.5 5.5 0  19 5.5 0  19.5 5.5 0  20 5.5 0  0 6 0  0.5 6 0  1 6 0  1.5 6 0  2 6 0  2.5 6 0  3 6 0  3.5 6 0  4 6 0  4.5 6 0  5 6 0  5.5 6 0  6 6 0  6.5 6 0  7 6 0  7.5 6 0  8 6 0  8.5 6 0  9 6 0  9.5 6 0  10 6 0  10.5 6 0  11 6 0  11.5 6 0  12 6 0  12.5 6 0  13 6 0  13.5 6 0  14 6 0  14.5 6 0  15 6 0  15.5 6 0  16 6 0  16.5 6 0  17 6 0  17.5 6 0  18 6 0  18.5 6 0  19 6 0  19.5 6 0  20 6 0  0 6.5 0  0.5 6.5 0  1 6.5 0  1.5 6.5 0  2 6.5 0  2.5 6.5 0  3 6.5 0  3.5 6.5 0  4 6.5 0  4.5 6.5 0  5 6.5 0  5.5 6.5 0  6 6.5 0  6.5 6.5 0  7 6.5 0  7.5 6.5 0  8 6.5 0  8.5 6.5 0  9 6.5 0  9.5 6.5 0  10 6.5 0  10.5 6.5 0  11 6.5 0  11.5 6.5 0  12 6.5 0  12.5 6.5 0  13 6.5 0  13.5 6.5 0  14 6.5 0  14.5 6.5 0  15 6.5 0  15.5 6.5 0  16 6.5 0  16.5 6.5 0  17 6.5 0  17.5 6.5 0  18 6.5 0  18.5 6.5 0  19 6.5 0  19.5 6.5 0  20 6.5 0  0 7 0  0.5 7 0  1 7 0  1.5 7 0  2 7 0  2.5 7 0  3 7 0  3.5 7 0  4 7 0  4.5 7 0  5 7 0  5.5 7 0  6 7 0  6.5 7 0  7 7 0  7.5 7 0  8 7 0  8.5 7 0  9 7 0  9.5 7 0  10 7 0  10.5 7 0  11 7 0  11.5 7 0  12 7 0  12.5 7 0  13 7 0  13.5 7 0  14 7 0  14.5 7 0  15 7 0  15.5 7 0  16 7 0  16.5 7 0  17 7 0  17.5 7 0  18 7 0  18.5 7 0  19 7 0  19.5 7 0  20 7 0  0 7.5 0  0.5 7.5 0  1 7.5 0  1.5 7.5 0  2 7.5 0  2.5 7.5 0  3 7.5 0  3.5 7.5 0  4 7.5 0  4.5 7.5 0  5 7.5 0  5.5 7.5 0  6 7.5 0  6.5 7.5 0  7 7.5 0  7.5 7.5 0  8 7.5 0  8.5 7.5 0  9 7.5 0  9.5 7.5 0  10 7.5 0  10.5 7.5 0  11 7.5 0  11.5 7.5 0  12 7.5 0  12.5 7.5 0  13 7.5 0  13.5 7.5 0  14 7.5 0  14.5 7.5 0  15 7.5 0  15.5 7.5 0  16 7.5 0  16.5 7.5 0  17 7.5 0  17.5 7.5 0  18 7.5 0  18.5 7.5 0  19 7.5 0  19.5 7.5 0  20 7.5 0  0 8 0  0.5 8 0  1 8 0  1.5 8 0  2 8 0  2.5 8 0  3 8 0  3.5 8 0  4 8 0  4.5 8 0  5 8 0  5.5 8 0  6 8 0  6.5 8 0  7 8 0  7.5 8 0  8 8 0  8.5 8 0  9 8 0  9.5 8 0  10 8 0  10.5 8 0  11 8 0  11.5 8 0  12 8 0  12.5 8 0  13 8 0  13.5 8 0  14 8 0  14.5 8 0  15 8 0  15.5 8 0  16 8 0  16.5 8 0  17 8 0  17.5 8 0  18 8 0  18.5 8 0  19 8 0  19.5 8 0  20 8 0  0 8.5 0  0.5 8.5 0  1 8.5 0  1.5 8.5 0  2 8.5 0  2.5 8.5 0  3 8.5 0  3.5 8.5 0  4 8.5 0  4.5 8.5 0  5 8.5 0  5.5 8.5 0  6 8.5 0  6.5 8.5 0  7 8.5 0  7.5 8.5 0  8 8.5 0  8.5 8.5 0  9 8.5 0  9.5 8.5 0  10 8.5 0  10.5 8.5 0  11 8.5 0  11.5 8.5 0  12 8.5 0  12.5 8.5 0  13 8.5 0  13.5 8.5 0  14 8.5 0  14.5 8.5 0  15 8.5 0  15.5 8.5 0  16 8.5 0  16.5 8.5 0  17 8.5 0  17.5 8.5 0  18 8.5 0  18.5 8.5 0  19 8.5 0  19.5 8.5 0  20 8.5 0  0 9 0  0.5 9 0  1 9 0  1.5 9 0  2 9 0  2.5 9 0  3 9 0  3.5 9 0  4 9 0  4.5 9 0  5 9 0  5.5 9 0  6 9 0  6.5 9 0  7 9 0  7.5 9 0  8 9 0  8.5 9 0  9 9 0  9.5 9 0  10 9 0  10.5 9 0  11 9 0  11.5 9 0  12 9 0  12.5 9 0  13 9 0  13.5 9 0  14 9 0  14.5 9 0  15 9 0  15.5 9 0  16 9 0  16.5 9 0  17 9 0  17.5 9 0  18 9 0  18.5 9 0  19 9 0  19.5 9 0  20 9 0  0 9.5 0  0.5 9.5 0  1 9.5 0  1.5 9.5 0  2 9.5 0  2.5 9.5 0  3 9.5 0  3.5 9.5 0  4 9.5 0  4.5 9.5 0  5 9.5 0  5.5 9.5 0  6 9.5 0  6.5 9.5 0  7 9.5 0  7.5 9.5 0  8 9.5 0  8.5 9.5 0  9 9.5 0  9.5 9.5 0  10 9.5 0  10.5 9.5 0  11 9.5 0  11.5 9.5 0  12 9.5 0  12.5 9.5 0  13 9.5 0  13.5 9.5 0  14 9.5 0  14.5 9.5 0  15 9.5 0  15.5 9.5 0  16 9.5 0  16.5 9.5 0  17 9.5 0  17.5 9.5 0  18 9.5 0  18.5 9.5 0  19 9.5 0  19.5 9.5 0  20 9.5 0  0 10 0  0.5 10 0  1 10 0  1.5 10 0  2 10 0  2.5 10 0  3 10 0  3.5 10 0  4 10 0  4.5 10 0  5 10 0  5.5 10 0  6 10 0  6.5 10 0  7 10 0  7.5 10 0  8 10 0  8.5 10 0  9 10 0  9.5 10 0  10 10 0  10.5 10 0  11 10 0  11.5 10 0  12 10 0  12.5 10 0  13 10 0  13.5 10 0  14 10 0  14.5 10 0  15 10 0  15.5 10 0  16 10 0  16.5 10 0  17 10 0  17.5 10 0  18 10 0  18.5 10 0  19 10 0  19.5 10 0  20 10 0  0 10.5 0  0.5 10.5 0  1 10.5 0  1.5 10.5 0  2 10.5 0  2.5 10.5 0  3 10.5 0  3.5 10.5 0  4 10.5 0  4.5 10.5 0  5 10.5 0  5.5 10.5 0  6 10.5 0  6.5 10.5 0  7 10.5 0  7.5 10.5 0  8 10.5 0  8.5 10.5 0  9 10.5 0  9.5 10.5 0  10 10.5 0  10.5 10.5 0  11 10.5 0  11.5 10.5 0  12 10.5 0  12.5 10.5 0  13 10.5 0  13.5 10.5 0  14 10.5 0  14.5 10.5 0  15 10.5 0  15.5 10.5 0  16 10.5 0  16.5 10.5 0  17 10.5 0  17.5 10.5 0  18 10.5 0  18.5 10.5 0  19 10.5 0  19.5 10.5 0  20 10.5 0  0 11 0  0.5 11 0  1 11 0  1.5 11 0  2 11 0  2.5 11 0  3 11 0  3.5 11 0  4 11 0  4.5 11 0  5 11 0  5.5 11 0  6 11 0  6.5 11 0  7 11 0  7.5 11 0  8 11 0  8.5 11 0  9 11 0  9.5 11 0  10 11 0  10.5 11 0  11 11 0  11.5 11 0  12 11 0  12.5 11 0  13 11 0  13.5 11 0  14 11 0  14.5 11 0  15 11 0  15.5 11 0  16 11 0  16.5 11 0  17 11 0  17.5 11 0  18 11 0  18.5 11 0  19 11 0  19.5 11 0  20 11 0  0 11.5 0  0.5 11.5 0  1 11.5 0  1.5 11.5 0  2 11.5 0  2.5 11.5 0  3 11.5 0  3.5 11.5 0  4 11.5 0  4.5 11.5 0  5 11.5 0  5.5 11.5 0  6 11.5 0  6.5 11.5 0  7 11.5 0  7.5 11.5 0  8 11.5 0  8.5 11.5 0  9 11.5 0  9.5 11.5 0  10 11.5 0  10.5 11.5 0  11 11.5 0  11.5 11.5 0  12 11.5 0  12.5 11.5 0  13 11.5 0  13.5 11.5 0  14 11.5 0  14.5 11.5 0  15 11.5 0  15.5 11.5 0  16 11.5 0  16.5 11.5 0  17 11.5 0  17.5 11.5 0  18 11.5 0  18.5 11.5 0  19 11.5 0  19.5 11.5 0  20 11.5 0  0 12 0  0.5 12 0  1 12 0  1.5 12 0  2 12 0  2.5 12 0  3 12 0  3.5 12 0  4 12 0  4.5 12 0  5 12 0  5.5 12 0  6 12 0  6.5 12 0  7 12 0  7.5 12 0  8 12 0  8.5 12 0  9 12 0  9.5 12 0  10 12 0  10.5 12 0  11 12 0  11.5 12 0  12 12 0  12.5 12 0  13 12 0  13.5 12 0  14 12 0  14.5 12 0  
[...]
<PointData  Vectors="f_2975-0"> 
<DataArray  type="Float64"  Name="f_2975-0"  NumberOfComponents="3" format="ascii">0.0000000000000000e+00 0.0000000000000000e+00 0.0000000000000000e+00  -1.2497901906960846e-06 0.0000000000000000e+00 0.0000000000000000e+00  -6.0561505292883810e-06 0.0000000000000000e+00 0.0000000000000000e+00  -1.9619073193552683e-05 0.0000000000000000e+00 0.0000000000000000e+00  -4.6304819151300653e-05 0.0000000000000000e+00 0.0000000000000000e+00  -9.0351307454156673e-05 0.0000000000000000e+00 0.0000000000000000e+00  -1.5588988995836133e-04 0.0000000000000000e+00 0.0000000000000000e+00  -2.4691148153741633e-04 0.0000000000000000e+00 0.0000000000000000e+00  -3.6722471872344798e-04 0.0000000000000000e+00 0.0000000000000000e+00  -5.2040686698017337e-04 0.0000000000000000e+00 0.0000000000000000e+00  -7.0974488004009201e-04 0.0000000000000000e+00 0.0000000000000000e+00  -9.3816357376938389e-04 0.0000000000000000e+00 0.0000000000000000e+00  -1.2081373006406510e-03 0.0000000000000000e+00 0.0000000000000000e+00  -1.5215807085718102e-03 0.0000000000000000e+00 0.0000000000000000e+00  -1.8797131764678279e-03 0.0000000000000000e+00 0.0000000000000000e+00  -2.2828903493332230e-03 0.0000000000000000e+00 0.0000000000000000e+00  -2.7303948497610208e-03 0.0000000000000000e+00 0.0000000000000000e+00  -3.2201767288620323e-03 0.0000000000000000e+00 0.0000000000000000e+00  -3.7485325578444826e-03 0.0000000000000000e+00 0.0000000000000000e+00  -4.3097102832559348e-03 0.0000000000000000e+00 0.0000000000000000e+00  -4.8954251193698310e-03 0.0000000000000000e+00 0.0000000000000000e+00  -5.4942698815791530e-03 0.0000000000000000e+00 0.0000000000000000e+00  -6.0910013259810368e-03 0.0000000000000000e+00 0.0000000000000000e+00  -6.6656822868814023e-03 0.0000000000000000e+00 0.0000000000000000e+00  -7.1926576903903437e-03 0.0000000000000000e+00 0.0000000000000000e+00  -7.6393407943662929e-03 0.0000000000000000e+00 0.0000000000000000e+00  -7.9647840784427062e-03 0.0000000000000000e+00 0.0000000000000000e+00  -8.1180067422020556e-03 0.0000000000000000e+00 0.0000000000000000e+00  -8.0360472091051405e-03 0.0000000000000000e+00 0.0000000000000000e+00  -7.6417035430106812e-03 0.0000000000000000e+00 0.0000000000000000e+00  -6.8409160583399091e-03 0.0000000000000000e+00 0.0000000000000000e+00  -5.5197329498003628e-03 0.0000000000000000e+00 0.0000000000000000e+00  -3.5407791009485733e-03 0.0000000000000000e+00 0.0000000000000000e+00  -7.3911693187969716e-04 0.0000000000000000e+00 0.0000000000000000e+00  3.0826589176859197e-03 0.0000000000000000e+00 0.0000000000000000e+00  8.1603224103811954e-03 0.0000000000000000e+00 0.0000000000000000e+00  1.4775252314783839e-02 0.0000000000000000e+00 0.0000000000000000e+00  2.3263529596463633e-02 0.0000000000000000e+00 0.0000000000000000e+00  3.4027807697842069e-02 0.0000000000000000e+00 0.0000000000000000e+00  4.7554086816431765e-02 0.0000000000000000e+00 0.0000000000000000e+00  6.4440614029600607e-02 0.0000000000000000e+00 0.0000000000000000e+00  0.0000000000000000e+00 -1.2497901955868674e-06 0.0000000000000000e+00  1.7255432900351302e-06 1.7255432870864851e-06 0.0000000000000000e+00  -1.1020866150551158e-06 8.7796899231541091e-06 0.0000000000000000e+00  -1.2567114047084314e-05 1.9967269418386632e-05 0.0000000000000000e+00  -3.7078799439977623e-05 3.5417443362166855e-05 0.0000000000000000e+00  -7.8923078164379378e-05 5.5138070232741240e-05 0.0000000000000000e+00  -1.4225141049819832e-04 7.9068508656785714e-05 0.0000000000000000e+00  -2.3106390520323447e-04 1.0710964252890106e-04 0.0000000000000000e+00  -3.4917500786861989e-04 1.3913392649859692e-04 0.0000000000000000e+00  -5.0016712855914091e-04 1.7498761072800700e-04 0.0000000000000000e+00  -6.8733274030395456e-04 2.1449026014281171e-04 0.0000000000000000e+00  -9.1360300392557029e-04 2.5743332853904851e-04 0.0000000000000000e+00  -1.1814596635942858e-03 3.0357839066633011e-04 0.0000000000000000e+00  -1.4928259177547248e-03 3.5265527069142528e-04 0.0000000000000000e+00  -1.8489309008652940e-03 4.0436019621157123e-04 0.0000000000000000e+00  -2.2501412133457245e-03 4.5835407697961806e-04 0.0000000000000000e+00  -2.6957515799732883e-03 5.1426100307666556e-04 0.0000000000000000e+00  -3.1837251983909500e-03 5.7166706154145649e-04 0.0000000000000000e+00  -3.7103726750615041e-03 6.3011957677783475e-04 0.0000000000000000e+00  -4.2699566673345887e-03 6.8912688629984957e-04 0.0000000000000000e+00  -4.8542075004878935e-03 7.4815876745626994e-04 0.0000000000000000e+00  -5.4517331596148884e-03 8.0664763147087967e-04 0.0000000000000000e+00  -6.0473052186025417e-03 8.6399059761355535e-04 0.0000000000000000e+00  -6.6210004958698644e-03 9.1955255050920270e-04 0.0000000000000000e+00  -7.1471765139888271e-03 9.7267026655649337e-04 0.0000000000000000e+00  -7.5932571127869351e-03 1.0226576698518803e-03 0.0000000000000000e+00  -7.9183026379776034e-03 1.0688122421658711e-03 0.0000000000000000e+00  -8.0713366576865651e-03 1.1104225643673768e-03 0.0000000000000000e+00  -7.9893975903986367e-03 1.1467769075927951e-03 0.0000000000000000e+00  -7.5952781212076216e-03 1.1771727220813023e-03 0.0000000000000000e+00  -6.7949066326603302e-03 1.2009267920184241e-03 0.0000000000000000e+00  -5.4743113910896450e-03 1.2173857413374357e-03 0.0000000000000000e+00  -3.4960875465172517e-03 1.2259364918011740e-03 0.0000000000000000e+00  -6.9525577908193588e-04 1.2260161853644026e-03 0.0000000000000000e+00  3.1256452232515221e-03 1.2171209504412120e-03 0.0000000000000000e+00  8.2024597406449053e-03 1.1988126396214539e-03 0.0000000000000000e+00  1.4816640695799337e-02 1.1707223555960115e-03 0.0000000000000000e+00  2.3304288377597827e-02 1.1325504735772486e-03 0.0000000000000000e+00  3.4067724908542978e-02 1.0840711521170319e-03 0.0000000000000000e+00  4.7590583781004794e-02 1.0251819028559938e-03 0.0000000000000000e+00  6.4456575297480695e-02 9.5604640610555240e-04 0.0000000000000000e+00  0.0000000000000000e+00 -6.0561505382769405e-06 0.0000000000000000e+00  8.7796899251758565e-06 -1.1020866173616312e-06 0.0000000000000000e+00  1.2661222986089845e-05 1.2661222986015782e-05 0.0000000000000000e+00  7.8050740447708579e-06 3.5069985158341656e-05 0.0000000000000000e+00  -1.0101290603818118e-05 6.6085032905526721e-05 0.0000000000000000e+00  -4.5326533950543474e-05 1.0562744394267580e-04 0.0000000000000000e+00  -1.0202902201284728e-04 1.5356340310774142e-04 0.0000000000000000e+00  -1.8422033277945356e-04 2.0970227042347713e-04 0.0000000000000000e+00  -2.9572735382212516e-04 2.7379832119066213e-04 0.0000000000000000e+00  -4.4014611548124413e-04 3.4555160213371793e-04 0.0000000000000000e+00  -6.2078464326636269e-04 4.2460703762509181e-04 0.0000000000000000e+00  -8.4059222243273936e-04 5.1055218675732483e-04 0.0000000000000000e+00  -1.1020717389144373e-03 6.0291419068547421e-04 0.0000000000000000e+00  -1.4071708256984832e-03 7.0115632918983141e-04 0.0000000000000000e+00  -1.7571464766294425e-03 8.0467449425912919e-04 0.0000000000000000e+00  -2.1523965778008432e-03 9.1279382646049874e-04 0.0000000000000000e+00  -2.5922504383582225e-03 1.0247657346352430e-03 0.0000000000000000e+00  -3.0747088769537485e-03 1.1397655153211751e-03 0.0000000000000000e+00  -3.5961227526609472e-03 1.2568907934475317e-03 0.0000000000000000e+00  -4.1507970495758524e-03 1.3751610142832182e-03 0.0000000000000000e+00  -4.7305057757852671e-03 1.4935182229681011e-03 0.0000000000000000e+00  -5.3239010715793117e-03 1.6108293692131488e-03 0.0000000000000000e+00  -5.9157980882166110e-03 1.7258903686590381e-03 0.0000000000000000e+00  -6.4863154320086887e-03 1.8374321343776919e-03 0.0000000000000000e+00  -7.0098492623863473e-03 1.9441287616889054e-03 0.0000000000000000e+00  -7.4538574126108001e-03 2.0446080020611124e-03 0.0000000000000000e+00  -7.7774279814384955e-03 2.1374640968758467e-03 0.0000000000000000e+00  -7.9296043810562749e-03 2.2212729557370822e-03 0.0000000000000000e+00  -7.8474352629905667e-03 2.2946095574406223e-03 0.0000000000000000e+00  -7.4537122412605423e-03 2.3560673238850207e-03 0.0000000000000000e+00  -6.6543496885023441e-03 2.4042790707472614e-03 0.0000000000000000e+00  -5.3353474185024070e-03 2.4379389754975406e-03 0.0000000000000000e+00  -3.3592564634976289e-03 2.4558248198146013e-03 0.0000000000000000e+00  -5.6103715909856387e-04 2.4568195400349927e-03 0.0000000000000000e+00  3.2568472747966743e-03 2.4399307919336938e-03 0.0000000000000000e+00  8.3303263375760269e-03 2.4043066353765861e-03 0.0000000000000000e+00  1.4940931698159304e-02 2.3492439791924216e-03 0.0000000000000000e+00  2.3424792680116577e-02 2.2741812992716844e-03 0.0000000000000000e+00  3.4184104905117856e-02 2.1786442847558404e-03 0.0000000000000000e+00  4.7702044826309534e-02 2.0620081911789474e-03 0.0000000000000000e+00  6.4562442532295372e-02 1.9224801698808779e-03 0.0000000000000000e+00  0.0000000000000000e+00 -1.9619073205955156e-05 0.0000000000000000e+00  1.9967269424202201e-05 -1.2567114048755605e-05 0.0000000000000000e+00  3.5069985162745252e-05 7.8050740414990627e-06 0.0000000000000000e+00  4.1316576074360715e-05 4.1316576065502756e-05 0.0000000000000000e+00  3.4474486153202543e-05 8.7832465318362138e-05 0.0000000000000000e+00  1.0299523928958750e-05 1.4718656095899927e-04 0.0000000000000000e+00  -3.5362626782902311e-05 2.1915097752064669e-04 0.0000000000000000e+00  -1.0653011999648260e-04 3.0342914214829988e-04 0.0000000000000000e+00  -2.0704320054613673e-04 3.9965190060345455e-04 0.0000000000000000e+00  -3.4051657817883263e-04 5.0737369213868630e-04 0.0000000000000000e+00  -5.1028196520356043e-04 6.2606835871068629e-04 0.0000000000000000e+00  -7.1931748805688399e-04 7.5512446726794811e-04 0.0000000000000000e+00  -9.7016030012096017e-04 8.9384019846172743e-04 0.0000000000000000e+00  -1.2647979662621350e-03 1.0414179775660346e-03 0.0000000000000000e+00  -1.6045332039033061e-03 1.1969590889301725e-03 0.0000000000000000e+00  -1.9898153885997069e-03 1.3594585486534530e-03 0.0000000000000000e+00  -2.4200308774171135e-03 1.5278005304032102e-03 0.0000000000000000e+00  -2.8932426830500868e-03 1.7007546573570835e-03 0.0000000000000000e+00  -3.4058683664837815e-03 1.8769734908498088e-03 0.0000000000000000e+00  -3.9522832390038436e-03 2.0549915628303331e-03 0.0000000000000000e+00  -4.5243341198243914e-03 2.2332263108603640e-03 0.0000000000000000e+00  -5.1107470351023530e-03 2.4099812788142632e-03 0.0000000000000000e+00  -5.6964104188842891e-03 2.5834519387098573e-03 0.0000000000000000e+00  -6.2615136194464176e-03 2.7517344662529365e-03 0.0000000000000000e+00  -6.7805188210232001e-03 2.9128377598046993e-03 0.0000000000000000e+00  -7.2209427842009977e-03 3.0646989262876172e-03 0.0000000000000000e+00  -7.5419229032304179e-03 3.2052023635146002e-03 0.0000000000000000e+00  -7.6925396306351508e-03 3.3322024431648120e-03 0.0000000000000000e+00  -7.6098637715125662e-03 3.4435496394518666e-03 0.0000000000000000e+00  -7.2166916630536180e-03 3.5371197517585157e-03 0.0000000000000000e+00  -6.4189226308820598e-03 3.6108456326311958e-03 0.0000000000000000e+00  -5.1025196861262260e-03 3.6627505461454364e-03 0.0000000000000000e+00  -3.1299738985412933e-03 3.6909819230516137e-03 0.0000000000000000e+00  -3.3616206066436772e-04 3.6938437803058911e-03 0.0000000000000000e+00  3.4765583855721439e-03 3.6698252456881211e-03 0.0000000000000000e+00  8.5442402661568811e-03 3.6176209372676756e-03 0.0000000000000000e+00  1.5148544859765148e-02 3.5361348246974742e-03 0.0000000000000000e+00  2.3625712429432878e-02 3.4244481709165618e-03 0.0000000000000000e+00  3.4377975863780892e-02 3.2817032107877423e-03 0.0000000000000000e+00  4.7888361916413665e-02 3.1067907379609266e-03 0.0000000000000000e+00  6.4740151207625315e-02 2.8976601891324257e-03 0.0000000000000000e+00  0.0000000000000000e+00 -4.6304819163382691e-05 0.0000000000000000e+00  3.5417443356685101e-05 -3.7078799445746080e-05 0.0000000000000000e+00  6.6085032905523766e-05 -1.0101290605463437e-05 0.0000000000000000e+00  8.7832465317881864e-05 3.4474486147031047e-05 0.0000000000000000e+00  9.6453749087569731e-05 9.6453749089639581e-05 0.0000000000000000e+00  8.7722949782148313e-05 1.7559598985524192e-04 0.0000000000000000e+00  5.7488329917482787e-05 2.7158659727638675e-04 0.0000000000000000e+00  1.7240911311381524e-06 3.8402612388070272e-04 0.0000000000000000e+00  -8.3425679523686582e-05 5.1242359775908900e-04 0.0000000000000000e+00  -2.0159885706418399e-04 6.5619023634596826e-04 0.0000000000000000e+00  -3.5615783879430811e-04 8.1463273563758679e-04 0.0000000000000000e+00  -5.5011917865083789e-04 9.8694608008021638e-04 0.0000000000000000e+00  -7.8606647369422380e-04 1.1722060052806722e-03 0.0000000000000000e+00  -1.0660419770948211e-03 1.3693613120175218e-03 0.0000000000000000e+00  -1.3914114498516776e-03 1.5772262808543731e-03 0.0000000000000000e+00  -1.7626956015710624e-03 1.7944734867329532e-03 0.0000000000000000e+00  -2.1793601255414787e-03 2.0196273593038141e-03 0.0000000000000000e+00  -2.6395548196405088e-03 2.2510588768678234e-03 0.0000000000000000e+00  -3.1397906247738281e-03 2.4869818191757299e-03 0.0000000000000000e+00  -3.6745416408535199e-03 2.7254510356669753e-03 0.0000000000000000e+00  -4.2357573422529661e-03 2.9643632081022895e-03 0.0000000000000000e+00  -4.8122683627973622e-03 3.2014605982867627e-03 0.0000000000000000e+00  -5.3890674064961076e-03 3.4343382661997930e-03 0.0000000000000000e+00  -5.9464450974247296e-03 3.6604552187862890e-03 0.0000000000000000e+00  -6.4589589061771237e-03 3.8771498976843057e-03 0.0000000000000000e+00  -6.8942116040764997e-03 4.0816603307136439e-03 0.0000000000000000e+00  -7.2114138143247984e-03 4.2711491504050878e-03 0.0000000000000000e+00  -7.3597028067493688e-03 4.4427335175600000e-03 0.0000000000000000e+00  -7.2761861615362909e-03 4.5935197724596474e-03 0.0000000000000000e+00  -6.8836734693004126e-03 4.7206423633211593e-03 0.0000000000000000e+00  -6.0880506446700381e-03 4.8213062619869322e-03 0.0000000000000000e+00  -4.7752380510665444e-03 4.8928316505031707e-03 0.0000000000000000e+00  -2.8076531918590866e-03 4.9326991104054162e-03 0.0000000000000000e+00  -2.0068079347502251e-05 4.9385927697398191e-03 0.0000000000000000e+00  3.7852938704456083e-03 4.9084376281377292e-03 0.0000000000000000e+00  8.8446428001896175e-03 4.8404250513818282e-03 0.0000000000000000e+00  1.5439806991273126e-02 4.7330161214184062e-03 0.0000000000000000e+00  2.3907174184366345e-02 4.5849046055577367e-03 0.0000000000000000e+00  3.4649045416012013e-02 4.3949105725561606e-03 0.0000000000000000e+00  4.8148334157331663e-02 4.1617791891182341e-03 0.0000000000000000e+00  6.4987937244179630e-02 3.8839547325843224e-03 0.0000000000000000e+00  0.0000000000000000e+00 -9.0351307463562846e-05 0.0000000000000000e+00  5.5138070232747176e-05 -7.8923078173453404e-05 0.0000000000000000e+00  1.0562744394686478e-04 -4.5326533956940071e-05 0.0000000000000000e+00  1.4718656096361198e-04 1.0299523924369386e-05 0.0000000000000000e+00  1.7559598985888118e-04 8.7722949784218530e-05 0.0000000000000000e+00  1.8663957097664053e-04 1.8663957097577461e-04 0.0000000000000000e+00  1.7616589431876815e-04 3.0665590228796328e-04 0.0000000000000000e+00  1.4013951153056986e-04 4.4727676832486416e-04 0.0000000000000000e+00  7.4685696785512380e-05 6.0789634619563208e-04 0.0000000000000000e+00  -2.3861345193470000e-05 7.8778970422427276e-04 0.0000000000000000e+00  -1.5890142039530342e-04 9.8610390037593538e-04 0.0000000000000000e+00  -3.3349848803252867e-04 1.2018485017483412e-03 0.0000000000000000e+00  -5.5029402381861808e-04 1.4338856619145535e-03 0.0000000000000000e+00  -8.1139899367083351e-04 1.6809200031963631e-03 0.0000000000000000e+00  -1.1182588898168485e-03 1.9414886143908005e-03 0.0000000000000000e+00  -1.4714851263348675e-03 2.2139515278658930e-03 0.0000000000000000e+00  -1.8706447478434567e-03 2.4964830935813725e-03 0.0000000000000000e+00  -2.3139988932855105e-03 2.7870647202117697e-03 0.0000000000000000e+00  -2.7981787995093889e-03 3.0834795045689084e-03 0.0000000000000000e+00  -3.3177863624476215e-03 3.3833093151976680e-03 0.0000000000000000e+00  -3.8649044427358547e-03 3.6839349310614452e-03 0.0000000000000000e+00  -4.4285002614343908e-03 3.9825398577730065e-03 0.0000000000000000e+00  -4.9937034314199878e-03 4.2761184449843243e-03 0.0000000000000000e+00  -5.5409384458732008e-03 4.5614889049122379e-03 0.0000000000000000e+00  -6.0448897919590447e-03 4.8353117751934079e-03 0.0000000000000000e+00  -6.4732761992036805e-03 5.0941142723531160e-03 0.0000000000000000e+00  -6.7854086820156659e-03 5.3343208368375880e-03 0.0000000000000000e+00  -6.9305046497676031e-03 5.5522899683096332e-03 0.0000000000000000e+00  -6.8457268769274160e-03 5.7443571807920864e-03 0.0000000000000000e+00  -6.4539107126530149e-03 5.9068835612522113e-03 0.0000000000000000e+00  -5.6609343712160747e-03 6.0363089783938310e-03 0.0000000000000000e+00  -4.3526738332164659e-03 6.1292084389822426e-03 0.0000000000000000e+00  -2.3914635529191570e-03 6.1823493901059234e-03 0.0000000000000000e+00  3.8804627665746936e-04 6.1927468420062909e-03 0.0000000000000000e+00  4.1837900127704598e-03 6.1577119008407698e-03 0.0000000000000000e+00  9.2321639698735997e-03 6.0748874505565965e-03 0.0000000000000000e+00  1.5815195566206537e-02 5.9422622342285647e-03 0.0000000000000000e+00  2.4269456940839932e-02 5.7581524548341286e-03 0.0000000000000000e+00  3.4997377973651517e-02 5.5211433143464231e-03 0.0000000000000000e+00  4.8481918037297886e-02 5.2300072343120186e-03 0.0000000000000000e+00  6.5306048688280965e-02 4.8836917639650214e-03 0.0000000000000000e+00  0.0000000000000000e+00 -1.5588988996787542e-04 0.0000000000000000e+00  7.9068508654478830e-05 -1.4225141050544079e-04 0.0000000000000000e+00  1.5356340310480822e-04 -1.0202902201484852e-04 0.0000000000000000e+00  2.1915097751428625e-04 -3.5362626784765526e-05 0.0000000000000000e+00  2.7158659726853691e-04 5.7488329912978768e-05 0.0000000000000000e+00  3.0665590228197393e-04 1.7616589432158070e-04 0.0000000000000000e+00  3.2020584542751082e-04 3.2020584543002341e-04 0.0000000000000000e+00  3.0819000433230043e-04 4.8902558189930893e-04 0.0000000000000000e+00  2.6671246275028709e-04 6.8191339517946167e-04 0.0000000000000000e+00  1.9207548447813051e-04 8.9801791359497363e-04 0.0000000000000000e+00  8.0835872387985698e-05 1.1363369941082247e-03 0.0000000000000000e+00  -7.0125932774790713e-05 1.3957059115778353e-03 0.0000000000000000e+00  -2.6351991073633610e-04 1.6747849781726183e-03 0.0000000000000000e+00  -5.0153897758453312e-04 1.9720468645159283e-03 0.0000000000000000e+00  -7.8572434254926273e-04 2.2857639800853897e-03 0.0000000000000000e+00  -1.1167969416170471e-03 2.6139963398884186e-03 0.0000000000000000e+00  -1.4944468429442430e-03 2.9545804106828367e-03 0.0000000000000000e+00  -1.9170710072556976e-03 3.3051194949543180e-03 0.0000000000000000e+00  -2.3814481307768698e-03 3.6629762745836944e-03 0.0000000000000000e+00  -2.8823375347819327e-03 4.0252681945656130e-03 0.0000000000000000e+00  -3.4119872419834706e-03 4.3888664157007698e-03 0.0000000000000000e+00  -3.9595345499659545e-03 4.7503990993326339e-03 0.0000000000000000e+00  -4.5102806278602614e-03 5.1062597984116416e-03 0.0000000000000000e+00  -5.0448189600901163e-03 5.4526217118686365e-03 0.0000000000000000e+00  -5.5379958355642545e-03 5.7854585028633485e-03 0.0000000000000000e+00  -5.9576794564205693e-03 6.1005722774040254e-03 0.0000000000000000e+00  -6.2633124318462099e-03 6.3936291570524072e-03 0.0000000000000000e+00  -6.4042200842911257e-03 6.6602026472595112e-03 0.0000000000000000e+00  -6.3176435692807774e-03 6.8958246887174815e-03 0.0000000000000000e+00  -5.9264614582172047e-03 7.0960438712830958e-03 0.0000000000000000e+00  -5.1365549646605587e-03 7.2564897744446400e-03 0.0000000000000000e+00  -3.8337587646380834e-03 7.3729417598539801e-03 0.0000000000000000e+00  -1.8803191351079824e-03 7.4413997636834346e-03 0.0000000000000000e+00  8.8924914674869235e-04 7.4581537047136688e-03 0.0000000000000000e+00  4.6730603121386220e-03 7.4198470462521421e-03 0.0000000000000000e+00  9.70