<?xml version="1.0"?>
<VTKFile type="UnstructuredGrid"  version="0.1"  >
<UnstructuredGrid>
<Piece  NumberOfPoints="1681" NumberOfCells="3200">
<Points>
<DataArray  type="Float64"  NumberOfComponents="3"  format="ascii">0 0 0  0.5 0 0  1 0 0  1.5 0 0  2 0 0  2.5 0 0  3 0 0  3.5 0 0  4 0 0  4.5 0 0  5 0 0  5.5 0 0  6 0 0  6.5 0 0  7 0 0  7.5 0 0  8 0 0  8.5 0 0  9 0 0  9.5 0 0  10 0 0  10.5 0 0  11 0 0  11.5 0 0  12 0 0  12.5 0 0  13 0 0  13.5 0 0  14 0 0  14.5 0 0  15 0 0  15.5 0 0  16 0 0  16.5 0 0  17 0 0  17.5 0 0  18 0 0  18.5 0 0  19 0 0  19.5 0 0  20 0 0  0 0.5 0  0.5 0.5 0  1 0.5 0  1.5 0.5 0  2 0.5 0  2.5 0.5 0  3 0.5 0  3.5 0.5 0  4 0.5 0  4.5 0.5 0  5 0.5 0  5.5 0.5 0  6 0.5 0  6.5 0.5 0  7 0.5 0  7.5 0.5 0  8 0.5 0  8.5 0.5 0  9 0.5 0  9.5 0.5 0  10 0.5 0  10.5 0.5 0  11 0.5 0  11.5 0.5 0  12 0.5 0  12.5 0.5 0  13 0.5 0  13.5 0.5 0  14 0.5 0  14.5 0.5 0  15 0.5 0  15.5 0.5 0  16 0.5 0  16.5 0.5 0  17 0.5 0  17.5 0.5 0  18 0.5 0  18.5 0.5 0  19 0.5 0  19.5 0.5 0  20 0.5 0  0 1 0  0.5 1 0  1 1 0  1.5 1 0  2 1 0  2.5 1 0  3 1 0  3.5 1 0  4 1 0  4.5 1 0  5 1 0  5.5 1 0  6 1 0  6.5 1 0  7 1 0  7.5 1 0  8 1 0  8.5 1 0  9 1 0  9.5 1 0  10 1 0  10.5 1 0  11 1 0  11.5 1 0  12 1 0  12.5 1 0  13 1 0  13.5 1 0  14 1 0  14.5 1 0  15 1 0  15.5 1 0  16 1 0  16.5 1 0  17 1 0  17.5 1 0  18 1 0  18.5 1 0  19 1 0  19.5 1 0  20 1 0  0 1.5 0  0.5 1.5 0  1 1.5 0  1.5 1.5 0  2 1.5 0  2.5 1.5 0  3 1.5 0  3.5 1.5 0  4 1.5 0  4.5 1.5 0  5 1.5 0  5.5 1.5 0  6 1.5 0  6.5 1.5 0  7 1.5 0  7.5 1.5 0  8 1.5 0  8.5 1.5 0  9 1.5 0  9.5 1.5 0  10 1.5 0  10.5 1.5 0  11 1.5 0  11.5 1.5 0  12 1.5 0  12.5 1.5 0  13 1.5 0  13.5 1.5 0  14 1.5 0  14.5 1.5 0  15 1.5 0  15.5 1.5 0  16 1.5 0  16.5 1.5 0  17 1.5 0  17.5 1.5 0  18 1.5 0  18.5 1.5 0  19 1.5 0  19.5 1.5 0  20 1.5 0  0 2 0  0.5 2 0  1 2 0  1.5 2 0  2 2 0  2.5 2 0  3 2 0  3.5 2 0  4 2 0  4.5 2 0  5 2 0  5.5 2 0  6 2 0  6.5 2 0  7 2 0  7.5 2 0  8 2 0  8.5 2 0  9 2 0  9.5 2 0  10 2 0  10.5 2 0  11 2 0  11.5 2 0  12 2 0  12.5 2 0  13 2 0  13.5 2 0  14 2 0  14.5 2 0  15 2 0  15.5 2 0  16 2 0  16.5 2 0  17 2 0  17.5 2 0  18 2 0  18.5 2 0  19 2 0  19.5 2 0  20 2 0  0 2.5 0  0.5 2.5 0  1 2.5 0  1.5 2.5 0  2 2.5 0  2.5 2.5 0  3 2.5 0  3.5 2.5 0  4 2.5 0  4.5 2.5 0  5 2.5 0  5.5 2.5 0  6 2.5 0  6.5 2.5 0  7 2.5 0  7.5 2.5 0  8 2.5 0  8.5 2.5 0  9 2.5 0  9.5 2.5 0  10 2.5 0  10.5 2.5 0  11 2.5 0  11.5 2.5 0  12 2.5 0  12.5 2.5 0  13 2.5 0  13.5 2.5 0  14 2.5 0  14.5 2.5 0  15 2.5 0  15.5 2.5 0  16 2.5 0  16.5 2.5 0  17 2.5 0  17.5 2.5 0  18 2.5 0  18.5 2.5 0  19 2.5 0  19.5 2.5 0  20 2.5 0  0 3 0  0.5 3 0  1 3 0  1.5 3 0  2 3 0  2.5 3 0  3 3 0  3.5 3 0  4 3 0  4.5 3 0  5 3 0  5.5 3 0  6 3 0  6.5 3 0  7 3 0  7.5 3 0  8 3 0  8.5 3 0  9 3 0  9.5 3 0  10 3 0  10.5 3 0  11 3 0  11.5 3 0  12 3 0  12.5 3 0  13 3 0  13.5 3 0  14 3 0  14.5 3 0  15 3 0  15.5 3 0  16 3 0  16.5 3 0  17 3 0  17.5 3 0  18 3 0  18.5 3 0  19 3 0  19.5 3 0  20 3 0  0 3.5 0  0.5 3.5 0  1 3.5 0  1.5 3.5 0  2 3.5 0  2.5 3.5 0  3 3.5 0  3.5 3.5 0  4 3.5 0  4.5 3.5 0  5 3.5 0  5.5 3.5 0  6 3.5 0  6.5 3.5 0  7 3.5 0  7.5 3.5 0  8 3.5 0  8.5 3.5 0  9 3.5 0  9.5 3.5 0  10 3.5 0  10.5 3.5 0  11 3.5 0  11.5 3.5 0  12 3.5 0  12.5 3.5 0  13 3.5 0  13.5 3.5 0  14 3.5 0  14.5 3.5 0  15 3.5 0  15.5 3.5 0  16 3.5 0  16.5 3.5 0  17 3.5 0  17.5 3.5 0  18 3.5 0  18.5 3.5 0  19 3.5 0  19.5 3.5 0  20 3.5 0  0 4 0  0.5 4 0  1 4 0  1.5 4 0  2 4 0  2.5 4 0  3 4 0  3.5 4 0  4 4 0  4.5 4 0  5 4 0  5.5 4 0  6 4 0  6.5 4 0  7 4 0  7.5 4 0  8 4 0  8.5 4 0  9 4 0  9.5 4 0  10 4 0  10.5 4 0  11 4 0  11.5 4 0  12 4 0  12.5 4 0  13 4 0  13.5 4 0  14 4 0  14.5 4 0  15 4 0  15.5 4 0  16 4 0  16.5 4 0  17 4 0  17.5 4 0  18 4 0  18.5 4 0  19 4 0  19.5 4 0  20 4 0  0 4.5 0  0.5 4.5 0  1 4.5 0  1.5 4.5 0  2 4.5 0  2.5 4.5 0  3 4.5 0  3.5 4.5 0  4 4.5 0  4.5 4.5 0  5 4.5 0  5.5 4.5 0  6 4.5 0  6.5 4.5 0  7 4.5 0  7.5 4.5 0  8 4.5 0  8.5 4.5 0  9 4.5 0  9.5 4.5 0  10 4.5 0  10.5 4.5 0  11 4.5 0  11.5 4.5 0  12 4.5 0  12.5 4.5 0  13 4.5 0  13.5 4.5 0  14 4.5 0  14.5 4.5 0  15 4.5 0  15.5 4.5 0  16 4.5 0  16.5 4.5 0  17 4.5 0  17.5 4.5 0  18 4.5 0  18.5 4.5 0  19 4.5 0  19.5 4.5 0  20 4.5 0  0 5 0  0.5 5 0  1 5 0  1.5 5 0  2 5 0  2.5 5 0  3 5 0  3.5 5 0  4 5 0  4.5 5 0  5 5 0  5.5 5 0  6 5 0  6.5 5 0  7 5 0  7.5 5 0  8 5 0  8.5 5 0  9 5 0  9.5 5 0  10 5 0  10.5 5 0  11 5 0  11.5 5 0  12 5 0  12.5 5 0  13 5 0  13.5 5 0  14 5 0  14.5 5 0  15 5 0  15.5 5 0  16 5 0  16.5 5 0  17 5 0  17.5 5 0  18 5 0  18.5 5 0  19 5 0  19.5 5 0  20 5 0  0 5.5 0  0.5 5.5 0  1 5.5 0  1.5 5.5 0  2 5.5 0  2.5 5.5 0  3 5.5 0  3.5 5.5 0  4 5.5 0  4.5 5.5 0  5 5.5 0  5.5 5.5 0  6 5.5 0  6.5 5.5 0  7 5.5 0  7.5 5.5 0  8 5.5 0  8.5 5.5 0  9 5.5 0  9.5 5.5 0  10 5.5 0  10.5 5.5 0  11 5.5 0  11.5 5.5 0  12 5.5 0  12.5 5.5 0  13 5.5 0  13.5 5.5 0  14 5.5 0  14.5 5.5 0  15 5.5 0  15.5 5.5 0  16 5.5 0  16.5 5.5 0  17 5.5 0  17.5 5.5 0  18 5.5 0  18.5 5.5 0  19 5.5 0  19.5 5.5 0  20 5.5 0  0 6 0  0.5 6 0  1 6 0  1.5 6 0  2 6 0  2.5 6 0  3 6 0  3.5 6 0  4 6 0  4.5 6 0  5 6 0  5.5 6 0  6 6 0  6.5 6 0  7 6 0  7.5 6 0  8 6 0  8.5 6 0  9 6 0  9.5 6 0  10 6 0  10.5 6 0  11 6 0  11.5 6 0  12 6 0  12.5 6 0  13 6 0  13.5 6 0  14 6 0  14.5 6 0  15 6 0  15.5 6 0  16 6 0  16.5 6 0  17 6 0  17.5 6 0  18 6 0  18.5 6 0  19 6 0  19.5 6 0  20 6 0  0 6.5 0  0.5 6.5 0  1 6.5 0  1.5 6.5 0  2 6.5 0  2.5 6.5 0  3 6.5 0  3.5 6.5 0  4 6.5 0  4.5 6.5 0  5 6.5 0  5.5 6.5 0  6 6.5 0  6.5 6.5 0  7 6.5 0  7.5 6.5 0  8 6.5 0  8.5 6.5 0  9 6.5 0  9.5 6.5 0  10 6.5 0  10.5 6.5 0  11 6.5 0  11.5 6.5 0  12 6.5 0  12.5 6.5 0  13 6.5 0  13.5 6.5 0  14 6.5 0  14.5 6.5 0  15 6.5 0  15.5 6.5 0  16 6.5 0  16.5 6.5 0  17 6.5 0  17.5 6.5 0  18 6.5 0  18.5 6.5 0  19 6.5 0  19.5 6.5 0  20 6.5 0  0 7 0  0.5 7 0  1 7 0  1.5 7 0  2 7 0  2.5 7 0  3 7 0  3.5 7 0  4 7 0  4.5 7 0  5 7 0  5.5 7 0  6 7 0  6.5 7 0  7 7 0  7.5 7 0  8 7 0  8.5 7 0  9 7 0  9.5 7 0  10 7 0  10.5 7 0  11 7 0  11.5 7 0  12 7 0  12.5 7 0  13 7 0  13.5 7 0  14 7 0  14.5 7 0  15 7 0  15.5 7 0  16 7 0  16.5 7 0  17 7 0  17.5 7 0  18 7 0  18.5 7 0  19 7 0  19.5 7 0  20 7 0  0 7.5 0  0.5 7.5 0  1 7.5 0  1.5 7.5 0  2 7.5 0  2.5 7.5 0  3 7.5 0  3.5 7.5 0  4 7.5 0  4.5 7.5 0  5 7.5 0  5.5 7.5 0  6 7.5 0  6.5 7.5 0  7 7.5 0  7.5 7.5 0  8 7.5 0  8.5 7.5 0  9 7.5 0  9.5 7.5 0  10 7.5 0  10.5 7.5 0  11 7.5 0  11.5 7.5 0  12 7.5 0  12.5 7.5 0  13 7.5 0  13.5 7.5 0  14 7.5 0  14.5 7.5 0  15 7.5 0  15.5 7.5 0  16 7.5 0  16.5 7.5 0  17 7.5 0  17.5 7.5 0  18 7.5 0  18.5 7.5 0  19 7.5 0  19.5 7.5 0  20 7.5 0  0 8 0  0.5 8 0  1 8 0  1.5 8 0  2 8 0  2.5 8 0  3 8 0  3.5 8 0  4 8 0  4.5 8 0  5 8 0  5.5 8 0  6 8 0  6.5 8 0  7 8 0  7.5 8 0  8 8 0  8.5 8 0  9 8 0  9.5 8 0  10 8 0  10.5 8 0  11 8 0  11.5 8 0  12 8 0  12.5 8 0  13 8 0  13.5 8 0  14 8 0  14.5 8 0  15 8 0  15.5 8 0  16 8 0  16.5 8 0  17 8 0  17.5 8 0  18 8 0  18.5 8 0  19 8 0  19.5 8 0  20 8 0  0 8.5 0  0.5 8.5 0  1 8.5 0  1.5 8.5 0  2 8.5 0  2.5 8.5 0  3 8.5 0  3.5 8.5 0  4 8.5 0  4.5 8.5 0  5 8.5 0  5.5 8.5 0  6 8.5 0  6.5 8.5 0  7 8.5 0  7.5 8.5 0  8 8.5 0  8.5 8.5 0  9 8.5 0  9.5 8.5 0  10 8.5 0  10.5 8.5 0  11 8.5 0  11.5 8.5 0  12 8.5 0  12.5 8.5 0  13 8.5 0  13.5 8.5 0  14 8.5 0  14.5 8.5 0  15 8.5 0  15.5 8.5 0  16 8.5 0  16.5 8.5 0  17 8.5 0  17.5 8.5 0  18 8.5 0  18.5 8.5 0  19 8.5 0  19.5 8.5 0  20 8.5 0  0 9 0  0.5 9 0  1 9 0  1.5 9 0  2 9 0  2.5 9 0  3 9 0  3.5 9 0  4 9 0  4.5 9 0  5 9 0  5.5 9 0  6 9 0  6.5 9 0  7 9 0  7.5 9 0  8 9 0  8.5 9 0  9 9 0  9.5 9 0  10 9 0  10.5 9 0  11 9 0  11.5 9 0  12 9 0  12.5 9 0  13 9 0  13.5 9 0  14 9 0  14.5 9 0  15 9 0  15.5 9 0  16 9 0  16.5 9 0  17 9 0  17.5 9 0  18 9 0  18.5 9 0  19 9 0  19.5 9 0  20 9 0  0 9.5 0  0.5 9.5 0  1 9.5 0  1.5 9.5 0  2 9.5 0  2.5 9.5 0  3 9.5 0  3.5 9.5 0  4 9.5 0  4.5 9.5 0  5 9.5 0  5.5 9.5 0  6 9.5 0  6.5 9.5 0  7 9.5 0  7.5 9.5 0  8 9.5 0  8.5 9.5 0  9 9.5 0  9.5 9.5 0  10 9.5 0  10.5 9.5 0  11 9.5 0  11.5 9.5 0  12 9.5 0  12.5 9.5 0  13 9.5 0  13.5 9.5 0  14 9.5 0  14.5 9.5 0  15 9.5 0  15.5 9.5 0  16 9.5 0  16.5 9.5 0  17 9.5 0  17.5 9.5 0  18 9.5 0  18.5 9.5 0  19 9.5 0  19.5 9.5 0  20 9.5 0  0 10 0  0.5 10 0  1 10 0  1.5 10 0  2 10 0  2.5 10 0  3 10 0  3.5 10 0  4 10 0  4.5 10 0  5 10 0  5.5 10 0  6 10 0  6.5 10 0  7 10 0  7.5 10 0  8 10 0  8.5 10 0  9 10 0  9.5 10 0  10 10 0  10.5 10 0  11 10 0  11.5 10 0  12 10 0  12.5 10 0  13 10 0  13.5 10 0  14 10 0  14.5 10 0  15 10 0  15.5 10 0  16 10 0  16.5 10 0  17 10 0  17.5 10 0  18 10 0  18.5 10 0  19 10 0  19.5 10 0  20 10 0  0 10.5 0  0.5 10.5 0  1 10.5 0  1.5 10.5 0  2 10.5 0  2.5 10.5 0  3 10.5 0  3.5 10.5 0  4 10.5 0  4.5 10.5 0  5 10.5 0  5.5 10.5 0  6 10.5 0  6.5 10.5 0  7 10.5 0  7.5 10.5 0  8 10.5 0  8.5 10.5 0  9 10.5 0  9.5 10.5 0  10 10.5 0  10.5 10.5 0  11 10.5 0  11.5 10.5 0  12 10.5 0  12.5 10.5 0  13 10.5 0  13.5 10.5 0  14 10.5 0  14.5 10.5 0  15 10.5 0  15.5 10.5 0  16 10.5 0  16.5 10.5 0  17 10.5 0  17.5 10.5 0  18 10.5 0  18.5 10.5 0  19 10.5 0  19.5 10.5 0  20 10.5 0  0 11 0  0.5 11 0  1 11 0  1.5 11 0  2 11 0  2.5 11 0  3 11 0  3.5 11 0  4 11 0  4.5 11 0  5 11 0  5.5 11 0  6 11 0  6.5 11 0  7 11 0  7.5 11 0  8 11 0  8.5 11 0  9 11 0  9.5 11 0  10 11 0  10.5 11 0  11 11 0  11.5 11 0  12 11 0  12.5 11 0  13 11 0  13.5 11 0  14 11 0  14.5 11 0  15 11 0  15.5 11 0  16 11 0  16.5 11 0  17 11 0  17.5 11 0  18 11 0  18.5 11 0  19 11 0  19.5 11 0  20 11 0  0 11.5 0  0.5 11.5 0  1 11.5 0  1.5 11.5 0  2 11.5 0  2.5 11.5 0  3 11.5 0  3.5 11.5 0  4 11.5 0  4.5 11.5 0  5 11.5 0  5.5 11.5 0  6 11.5 0  6.5 11.5 0  7 11.5 0  7.5 11.5 0  8 11.5 0  8.5 11.5 0  9 11.5 0  9.5 11.5 0  10 11.5 0  10.5 11.5 0  11 11.5 0  11.5 11.5 0  12 11.5 0  12.5 11.5 0  13 11.5 0  13.5 11.5 0  14 11.5 0  14.5 11.5 0  15 11.5 0  15.5 11.5 0  16 11.5 0  16.5 11.5 0  17 11.5 0  17.5 11.5 0  18 11.5 0  18.5 11.5 0  19 11.5 0  19.5 11.5 0  20 11.5 0  0 12 0  0.5 12 0  1 12 0  1.5 12 0  2 12 0  2.5 12 0  3 12 0  3.5 12 0  4 12 0  4.5 12 0  5 12 0  5.5 12 0  6 12 0  6.5 12 0  7 12 0  7.5 12 0  8 12 0  8.5 12 0  9 12 0  9.5 12 0  10 12 0  10.5 12 0  11 12 0  11.5 12 0  12 12 0  12.5 12 0  13 12 0  13.5 12 0  14 12 0  14.5 12 0  
[...]
<PointData  Vectors="f_2975-0"> 
<DataArray  type="Float64"  Name="f_2975-0"  NumberOfComponents="3" format="ascii">0.0000000000000000e+00 0.0000000000000000e+00 0.0000000000000000e+00  2.0979966783481052e-06 0.0000000000000000e+00 0.0000000000000000e+00  -1.9015488600703441e-06 0.0000000000000000e+00 0.0000000000000000e+00  -2.1359633961665631e-05 0.0000000000000000e+00 0.0000000000000000e+00  -6.3937940967042397e-05 0.0000000000000000e+00 0.0000000000000000e+00  -1.3696321097356881e-04 0.0000000000000000e+00 0.0000000000000000e+00  -2.4744277530723915e-04 0.0000000000000000e+00 0.0000000000000000e+00  -4.0196523452297911e-04 0.0000000000000000e+00 0.0000000000000000e+00  -6.0658076323838244e-04 0.0000000000000000e+00 0.0000000000000000e+00  -8.6666264039732320e-04 0.0000000000000000e+00 0.0000000000000000e+00  -1.1867452016922934e-03 0.0000000000000000e+00 0.0000000000000000e+00  -1.5703330471298145e-03 0.0000000000000000e+00 0.0000000000000000e+00  -2.0196759813495917e-03 0.0000000000000000e+00 0.0000000000000000e+00  -2.5355036365635169e-03 0.0000000000000000e+00 0.0000000000000000e+00  -3.1167131290026680e-03 0.0000000000000000e+00 0.0000000000000000e+00  -3.7600024744098353e-03 0.0000000000000000e+00 0.0000000000000000e+00  -4.4594418514782019e-03 0.0000000000000000e+00 0.0000000000000000e+00  -5.2059741561144603e-03 0.0000000000000000e+00 0.0000000000000000e+00  -5.9868356239481998e-03 0.0000000000000000e+00 0.0000000000000000e+00  -6.7848865848858858e-03 0.0000000000000000e+00 0.0000000000000000e+00  -7.5778416002175997e-03 0.0000000000000000e+00 0.0000000000000000e+00  -8.3373872325956666e-03 0.0000000000000000e+00 0.0000000000000000e+00  -9.0281743811225119e-03 0.0000000000000000e+00 0.0000000000000000e+00  -9.6066702882772990e-03 0.0000000000000000e+00 0.0000000000000000e+00  -1.0019852727043732e-02 0.0000000000000000e+00 0.0000000000000000e+00  -1.0203725143661413e-02 0.0000000000000000e+00 0.0000000000000000e+00  -1.0081626175284072e-02 0.0000000000000000e+00 0.0000000000000000e+00  -9.5622993238828995e-03 0.0000000000000000e+00 0.0000000000000000e+00  -8.5376777543141481e-03 0.0000000000000000e+00 0.0000000000000000e+00  -6.8803239648751180e-03 0.0000000000000000e+00 0.0000000000000000e+00  -4.4404427152915068e-03 0.0000000000000000e+00 0.0000000000000000e+00  -1.0423555709858834e-03 0.0000000000000000e+00 0.0000000000000000e+00  3.5197170509951854e-03 0.0000000000000000e+00 0.0000000000000000e+00  9.4867812624982208e-03 0.0000000000000000e+00 0.0000000000000000e+00  1.7141406192565701e-02 0.0000000000000000e+00 0.0000000000000000e+00  2.6815708604712486e-02 0.0000000000000000e+00 0.0000000000000000e+00  3.8901632834901112e-02 0.0000000000000000e+00 0.0000000000000000e+00  5.3864537586757480e-02 0.0000000000000000e+00 0.0000000000000000e+00  7.2261885347574592e-02 0.0000000000000000e+00 0.0000000000000000e+00  9.4771340115654384e-02 0.0000000000000000e+00 0.0000000000000000e+00  1.2224204161056976e-01 0.0000000000000000e+00 0.0000000000000000e+00  0.0000000000000000e+00 2.0979966766080116e-06 0.0000000000000000e+00  7.7069560875494971e-06 7.7069560866838701e-06 0.0000000000000000e+00  7.3599469464169455e-06 2.0895928561235450e-05 0.0000000000000000e+00  -8.2109329312883992e-06 4.1757346652274235e-05 0.0000000000000000e+00  -4.6750499795359773e-05 7.0548400419876092e-05 0.0000000000000000e+00  -1.1567982646295318e-04 1.0729468369069758e-04 0.0000000000000000e+00  -2.2204585400095739e-04 1.5189084337123947e-04 0.0000000000000000e+00  -3.7245508697710965e-04 2.0415919859974088e-04 0.0000000000000000e+00  -5.7296862899815215e-04 2.6386979284196473e-04 0.0000000000000000e+00  -8.2896905402499263e-04 3.3074522692207571e-04 0.0000000000000000e+00  -1.1450004021839461e-03 4.0446019665025000e-04 0.0000000000000000e+00  -1.5245782751388576e-03 4.8463916126589081e-04 0.0000000000000000e+00  -1.9699652153127301e-03 5.7085330740002814e-04 0.0000000000000000e+00  -2.4819055607352147e-03 6.6261725389137787e-04 0.0000000000000000e+00  -3.0593132145016761e-03 7.5938572107489024e-04 0.0000000000000000e+00  -3.6989050865660674e-03 8.6055032276412735e-04 0.0000000000000000e+00  -4.3947723065101583e-03 9.6543662422649186e-04 0.0000000000000000e+00  -5.1378806497103784e-03 1.0733016127362845e-03 0.0000000000000000e+00  -5.9154909484603431e-03 1.1833317356765296e-03 0.0000000000000000e+00  -6.7104895434979108e-03 1.2946416714844360e-03 0.0000000000000000e+00  -7.5006180162609896e-03 1.4062740076616852e-03 0.0000000000000000e+00  -8.2575904412705101e-03 1.5172000065630700e-03 0.0000000000000000e+00  -8.9460850797306955e-03 1.6263216420539992e-03 0.0000000000000000e+00  -9.5225956098267447e-03 1.7324750869423962e-03 0.0000000000000000e+00  -9.9341243909758844e-03 1.8344358204880865e-03 0.0000000000000000e+00  -1.0116696526470997e-02 1.9309255052036714e-03 0.0000000000000000e+00  -9.9936681315748802e-03 2.0206207499559093e-03 0.0000000000000000e+00  -9.4737945723425941e-03 2.1021638285884103e-03 0.0000000000000000e+00  -8.4490136184057867e-03 2.1741753569454094e-03 0.0000000000000000e+00  -6.7918832156517233e-03 2.2352688423568790e-03 0.0000000000000000e+00  -4.3525921944512821e-03 2.2840669061941258e-03 0.0000000000000000e+00  -9.5543217338205544e-04 2.3192188401716892e-03 0.0000000000000000e+00  3.6054235436502519e-03 2.3394189833762726e-03 0.0000000000000000e+00  9.5710488849508890e-03 2.3434251711865950e-03 0.0000000000000000e+00  1.7224104366490564e-02 2.3300761342799881e-03 0.0000000000000000e+00  2.6896819244780035e-02 2.2983061643425417e-03 0.0000000000000000e+00  3.8981244921965370e-02 2.2471553996779776e-03 0.0000000000000000e+00  5.3942711049267289e-02 2.1757806707862056e-03 0.0000000000000000e+00  7.2337879932055316e-02 2.0835129333044446e-03 0.0000000000000000e+00  9.4839306410459054e-02 1.9701793666059126e-03 0.0000000000000000e+00  1.2226664463688129e-01 1.8373066870410193e-03 0.0000000000000000e+00  0.0000000000000000e+00 -1.9015488646890517e-06 0.0000000000000000e+00  2.0895928562717266e-05 7.3599469469733013e-06 0.0000000000000000e+00  3.3045525994972655e-05 3.3045525995249451e-05 0.0000000000000000e+00  2.9772822298539297e-05 7.4824988207456119e-05 0.0000000000000000e+00  3.5259691584437973e-06 1.3262897252701937e-04 0.0000000000000000e+00  -5.3081106752126746e-05 2.0632001016848177e-04 0.0000000000000000e+00  -1.4710787090234511e-04 2.9566055171982065e-04 0.0000000000000000e+00  -2.8518189203990155e-04 4.0030871923046364e-04 0.0000000000000000e+00  -4.7338663123399819e-04 5.1982202362684611e-04 0.0000000000000000e+00  -7.1712860147127744e-04 6.5365969793420523e-04 0.0000000000000000e+00  -1.0209787692588839e-03 8.0118175180556484e-04 0.0000000000000000e+00  -1.3884838622511574e-03 9.6164542624898295e-04 0.0000000000000000e+00  -1.8219426085472378e-03 1.1342000325740983e-03 0.0000000000000000e+00  -2.3221411509597853e-03 1.3178809329178404e-03 0.0000000000000000e+00  -2.8880411329406854e-03 1.5116031985967140e-03 0.0000000000000000e+00  -3.5164132460239555e-03 1.7141553534220175e-03 0.0000000000000000e+00  -4.2014083475916605e-03 1.9241935503157498e-03 0.0000000000000000e+00  -4.9340575875483671e-03 2.1402365127975546e-03 0.0000000000000000e+00  -5.7016923036293252e-03 2.3606615761175972e-03 0.0000000000000000e+00  -6.4872737251264372e-03 2.5837021757112552e-03 0.0000000000000000e+00  -7.2686217085821724e-03 2.8074471446579399e-03 0.0000000000000000e+00  -8.0175307292380486e-03 3.0298421931428234e-03 0.0000000000000000e+00  -8.6987600367652330e-03 3.2486939471400617e-03 0.0000000000000000e+00  -9.2688830630633760e-03 3.4616769173739553e-03 0.0000000000000000e+00  -9.6749785784504203e-03 3.6663437496115238e-03 0.0000000000000000e+00  -9.8531423681844591e-03 3.8601390694979129e-03 0.0000000000000000e+00  -9.7267928544623565e-03 4.0404171754276682e-03 0.0000000000000000e+00  -9.2047364595705308e-03 4.2044637466826613e-03 0.0000000000000000e+00  -8.1789476990225402e-03 4.3495216168886203e-03 0.0000000000000000e+00  -6.5220037767992380e-03 4.4728205100932625e-03 0.0000000000000000e+00  -4.0840921011313785e-03 4.5716104451488885e-03 0.0000000000000000e+00  -6.8947916475357244e-04 4.6431982800851446e-03 0.0000000000000000e+00  3.8677130235484115e-03 4.6849865877776429e-03 0.0000000000000000e+00  9.8286368508896296e-03 4.6945137258426542e-03 0.0000000000000000e+00  1.7476055748763250e-02 4.6694936239818664e-03 0.0000000000000000e+00  2.7142314521448281e-02 4.6078536480947865e-03 0.0000000000000000e+00  3.9219559051999628e-02 4.5077692840675586e-03 0.0000000000000000e+00  5.4173108506393737e-02 4.3676936877904225e-03 0.0000000000000000e+00  7.2559325019109569e-02 4.1863576272296284e-03 0.0000000000000000e+00  9.5049971922438900e-02 3.9625418818342636e-03 0.0000000000000000e+00  1.2246603517882165e-01 3.6934427741858924e-03 0.0000000000000000e+00  0.0000000000000000e+00 -2.1359633963520081e-05 0.0000000000000000e+00  4.1757346655313809e-05 -8.2109329327910373e-06 0.0000000000000000e+00  7.4824988212871262e-05 2.9772822297065697e-05 0.0000000000000000e+00  9.2235097560858698e-05 9.2235097553001390e-05 0.0000000000000000e+00  8.6595641520805682e-05 1.7892382463310924e-04 0.0000000000000000e+00  5.0570695095320629e-05 2.8953773452169475e-04 0.0000000000000000e+00  -2.2889161065208646e-05 4.2366537293200829e-04 0.0000000000000000e+00  -1.4042172043586540e-04 5.8077123983992559e-04 0.0000000000000000e+00  -3.0813305573818402e-04 7.6018869897687862e-04 0.0000000000000000e+00  -5.3146161170737236e-04 9.6111341797984235e-04 0.0000000000000000e+00  -8.1501885298012298e-04 1.1825962976805748e-03 0.0000000000000000e+00  -1.1624007730488056e-03 1.4235355287739006e-03 0.0000000000000000e+00  -1.5759646291089511e-03 1.6826677795334698e-03 0.0000000000000000e+00  -2.0565648410702918e-03 1.9585587620233229e-03 0.0000000000000000e+00  -2.6032414092915014e-03 2.2495935473036957e-03 0.0000000000000000e+00  -3.2128535686933224e-03 2.5539670550631445e-03 0.0000000000000000e+00  -3.8796507430464001e-03 2.8696751704855362e-03 0.0000000000000000e+00  -4.5947722025844479e-03 3.1945069650149201e-03 0.0000000000000000e+00  -5.3456661520636045e-03 3.5260385220841029e-03 0.0000000000000000e+00  -6.1154182579239817e-03 3.8616288959583806e-03 0.0000000000000000e+00  -6.8819788094226404e-03 4.1984187559565107e-03 0.0000000000000000e+00  -7.6172767131374381e-03 4.5333322872491118e-03 0.0000000000000000e+00  -8.2862072117033513e-03 4.8630829269551640e-03 0.0000000000000000e+00  -8.8454784064698286e-03 5.1841835067279645e-03 0.0000000000000000e+00  -9.2422990851511923e-03 5.4929613442255987e-03 0.0000000000000000e+00  -9.4128866471598193e-03 5.7855787711084215e-03 0.0000000000000000e+00  -9.2807685923973170e-03 6.0580594975688127e-03 0.0000000000000000e+00  -8.7548434338067770e-03 6.3063210865485601e-03 0.0000000000000000e+00  -7.7271561156344740e-03 6.5262136374244616e-03 0.0000000000000000e+00  -6.0703278390643644e-03 6.7135645500961154e-03 0.0000000000000000e+00  -3.6345588936949548e-03 6.8642289471998021e-03 0.0000000000000000e+00  -2.4409320135740096e-04 6.9741449602077638e-03 0.0000000000000000e+00  4.3070088265669054e-03 7.0393926123108351e-03 0.0000000000000000e+00  1.0260002314581134e-02 7.0562544022231668e-03 0.0000000000000000e+00  1.7897794028761040e-02 7.0212747465357786e-03 0.0000000000000000e+00  2.7552907558446315e-02 6.9313135688261205e-03 0.0000000000000000e+00  3.9617690293260316e-02 6.7835841829704153e-03 0.0000000000000000e+00  5.4557660177477894e-02 6.5756486904589859e-03 0.0000000000000000e+00  7.2929324299763162e-02 6.3052895495584443e-03 0.0000000000000000e+00  9.5404435009936173e-02 5.9700285325684568e-03 0.0000000000000000e+00  1.2280355342064429e-01 5.5658034923197980e-03 0.0000000000000000e+00  0.0000000000000000e+00 -6.3937940972583755e-05 0.0000000000000000e+00  7.0548400416200850e-05 -4.6750499798864077e-05 0.0000000000000000e+00  1.3262897252788408e-04 3.5259691572994609e-06 0.0000000000000000e+00  1.7892382463266849e-04 8.6595641514859592e-05 0.0000000000000000e+00  2.0209481867572985e-04 2.0209481867187182e-04 0.0000000000000000e+00  1.9484399219924515e-04 3.4958375898579846e-04 0.0000000000000000e+00  1.5012965025866913e-04 5.2849077501564493e-04 0.0000000000000000e+00  6.1302587845084584e-05 7.3809155300717300e-04 0.0000000000000000e+00  -7.7769142654712852e-05 9.7749696935208364e-04 0.0000000000000000e+00  -2.7256302382568478e-04 1.2456420800845581e-03 0.0000000000000000e+00  -5.2774257505360769e-04 1.5412745093249356e-03 0.0000000000000000e+00  -8.4696917286052541e-04 1.8629420009579250e-03 0.0000000000000000e+00  -1.2326792618349235e-03 2.2089792744978080e-03 0.0000000000000000e+00  -1.6858207141694156e-03 2.5774944528528642e-03 0.0000000000000000e+00  -2.2055415630220171e-03 2.9663554188998132e-03 0.0000000000000000e+00  -2.7888237288804280e-03 3.3731765405110845e-03 0.0000000000000000e+00  -3.4300537240431555e-03 3.7953062776751403e-03 0.0000000000000000e+00  -4.1205216719395312e-03 4.2298162521068145e-03 0.0000000000000000e+00  -4.8478393098390074e-03 4.6734924187444979e-03 0.0000000000000000e+00  -5.5952669313539148e-03 5.1228290315848378e-03 0.0000000000000000e+00  -6.3409384176499493e-03 5.5740261398458521e-03 0.0000000000000000e+00  -7.0569725188187674e-03 6.0229913834175600e-03 0.0000000000000000e+00  -7.7084572493509732e-03 6.4653468723756703e-03 0.0000000000000000e+00  -8.2522924648444525e-03 6.8964419297532923e-03 0.0000000000000000e+00  -8.6358731271030872e-03 7.3113724426121952e-03 0.0000000000000000e+00  -8.7955920802184201e-03 7.7050074962963962e-03 0.0000000000000000e+00  -8.6551358620537248e-03 8.0720238522075331e-03 0.0000000000000000e+00  -8.1235395047296443e-03 8.4069486611586808e-03 0.0000000000000000e+00  -7.0929555405183390e-03 8.7042105701639165e-03 0.0000000000000000e+00  -5.4360772973348131e-03 8.9581990672745592e-03 0.0000000000000000e+00  -3.0031353232616667e-03 9.1633314968225989e-03 0.0000000000000000e+00  3.8164403619254597e-04 9.3141266358057351e-03 0.0000000000000000e+00  4.9242708793170520e-03 9.4052829921722775e-03 0.0000000000000000e+00  1.0866127394238050e-02 9.4317589258455757e-03 0.0000000000000000e+00  1.8490305150626732e-02 9.3888499354687991e-03 0.0000000000000000e+00  2.8129567251978113e-02 9.2722550184401228e-03 0.0000000000000000e+00  4.0176543876087205e-02 9.0781165097594107e-03 0.0000000000000000e+00  5.5097047739224789e-02 8.8030015809355822e-03 0.0000000000000000e+00  7.3447813006871907e-02 8.4437649270727236e-03 0.0000000000000000e+00  9.5900580690416959e-02 7.9972131804927748e-03 0.0000000000000000e+00  1.2327540643466518e-01 7.4596238094717738e-03 0.0000000000000000e+00  0.0000000000000000e+00 -1.3696321097458704e-04 0.0000000000000000e+00  1.0729468369290055e-04 -1.1567982646609637e-04 0.0000000000000000e+00  2.0632001017037029e-04 -5.3081106760413751e-05 0.0000000000000000e+00  2.8953773452920491e-04 5.0570695088556529e-05 0.0000000000000000e+00  3.4958375898628169e-04 1.9484399219783899e-04 0.0000000000000000e+00  3.7918087414583142e-04 3.7918087414865186e-04 0.0000000000000000e+00  3.7129074551616424e-04 6.0286376117132901e-04 0.0000000000000000e+00  3.1924933284614937e-04 8.6499205542185968e-04 0.0000000000000000e+00  2.1689357749442182e-04 1.1644659645819295e-03 0.0000000000000000e+00  5.8699014578257419e-05 1.4999716689343997e-03 0.0000000000000000e+00  -1.6006123955730487e-04 1.8699658728706058e-03 0.0000000000000000e+00  -4.4312913619181494e-04 2.2726593440022692e-03 0.0000000000000000e+00  -7.9303974905548663e-04 2.7059995782731305e-03 0.0000000000000000e+00  -1.2108583387866832e-03 3.1676529349473361e-03 0.0000000000000000e+00  -1.6958695502137398e-03 3.6549866924617544e-03 0.0000000000000000e+00  -2.2452112758042739e-03 4.1650515606372392e-03 0.0000000000000000e+00  -2.8534450895986228e-03 4.6945652670693479e-03 0.0000000000000000e+00  -3.5120545103924589e-03 5.2398979174395422e-03 0.0000000000000000e+00  -4.2088616879107183e-03 5.7970599097972187e-03 0.0000000000000000e+00  -4.9273523979932194e-03 6.3616932573329638e-03 0.0000000000000000e+00  -5.6458984322402218e-03 6.9290672383339009e-03 0.0000000000000000e+00  -6.3368654901303058e-03 7.4940793422067879e-03 0.0000000000000000e+00  -6.9655933980114614e-03 8.0512625089647263e-03 0.0000000000000000e+00  -7.4892337013091614e-03 8.5947996609609841e-03 0.0000000000000000e+00  -7.8554271410805135e-03 9.1185464906505462e-03 0.0000000000000000e+00  -8.0007998724670962e-03 9.6160633875387539e-03 0.0000000000000000e+00  -7.8492520227982331e-03 1.0080657250686095e-02 0.0000000000000000e+00  -7.3100046632243315e-03 1.0505433727009732e-02 0.0000000000000000e+00  -6.2753605854904805e-03 1.0883360124805225e-02 0.0000000000000000e+00  -4.6181192084465460e-03 1.1207338856762205e-02 0.0000000000000000e+00  -2.1885647705404132e-03 1.1470290739150988e-02 0.0000000000000000e+00  1.1890827555570979e-03 1.1665246770523444e-02 0.0000000000000000e+00  5.7209064464671423e-03 1.1785446055048793e-02 0.0000000000000000e+00  1.1648432697597784e-02 1.1824436165035318e-02 0.0000000000000000e+00  1.9254969889019490e-02 1.1776170127684600e-02 0.0000000000000000e+00  2.8873566107783310e-02 1.1635090771542622e-02 0.0000000000000000e+00  4.0897189249037541e-02 1.1396187611584443e-02 0.0000000000000000e+00  5.5792006573926065e-02 1.1055004269963569e-02 0.0000000000000000e+00  7.4115058325146671e-02 1.0607573062822260e-02 0.0000000000000000e+00  9.6538278761127819e-02 1.0050286904673102e-02 0.0000000000000000e+00  1.2388193864632638e-01 9.3798562303758666e-03 0.0000000000000000e+00  0.0000000000000000e+00 -2.4744277531050314e-04 0.0000000000000000e+00  1.5189084337223388e-04 -2.2204585400635967e-04 0.0000000000000000e+00  2.9566055172130270e-04 -1.4710787090527956e-04 0.0000000000000000e+00  4.2366537292898071e-04 -2.2889161069640756e-05 0.0000000000000000e+00  5.2849077500874951e-04 1.5012965025938387e-04 0.0000000000000000e+00  6.0286376116581498e-04 3.7129074551325885e-04 0.0000000000000000e+00  6.3974511602813561e-04 6.3974511603130029e-04 0.0000000000000000e+00  6.3245344921490187e-04 9.5443025942541944e-04 0.0000000000000000e+00  5.7479046421581470e-04 1.3140510154815901e-03 0.0000000000000000e+00  4.6117784010296528e-04 1.7170611127111366e-03 0.0000000000000000e+00  2.8681512470895209e-04 2.1616439045478307e-03 0.0000000000000000e+00  4.7865811473272641e-05 2.6456918785065660e-03 0.0000000000000000e+00  -2.5832194645614018e-04 3.1667850607046723e-03 0.0000000000000000e+00  -6.3295343175692634e-04 3.7221686917211384e-03 0.0000000000000000e+00  -1.0754772769739720e-03 4.3087306948707861e-03 0.0000000000000000e+00  -1.5832196342023771e-03 4.9229795676905951e-03 0.0000000000000000e+00  -2.1509544140961992e-03 5.5610234283866040e-03 0.0000000000000000e+00  -2.7704007630609383e-03 6.2185510480441903e-03 0.0000000000000000e+00  -3.4296382830758154e-03 6.8908157981513183e-03 0.0000000000000000e+00  -4.1124297933418860e-03 7.5726235369932516e-03 0.0000000000000000e+00  -4.7974406382061963e-03 8.2583255429974321e-03 0.0000000000000000e+00  -5.4573425788501358e-03 8.9418176724612077e-03 0.0000000000000000e+00  -6.0577890382723671e-03 9.6165469640205788e-03 0.0000000000000000e+00  -6.5562467134080132e-03 1.0275526925857845e-02 0.0000000000000000e+00  -6.9006660626012729e-03 1.0911362712010613e-02 0.0000000000000000e+00  -7.0279695612855322e-03 1.1516287310643790e-02 0.0000000000000000e+00  -6.8623314072840192e-03 1.2082209716051593e-02 0.0000000000000000e+00  -6.3132148920645873e-03 1.2600775821844499e-02 0.0000000000000000e+00  -5.2731230435249174e-03 1.3063442436406190e-02 0.0000000000000000e+00  -3.6150031633637798e-03 1.3461564359731625e-02 0.0000000000000000e+00  -1.1892248141565809e-03 1.3786493841356327e-02 0.0000000000000000e+00  2.1799787850715806e-03 1.4029690917972156e-02 0.0000000000000000e+00  6.6987576829263254e-03 1.4182842040769968e-02 0.0000000000000000e+00  1.2608791262480511e-02 1.4237982949008120e-02 0.0000000000000000e+00  2.0193628914367195e-02 1.4187619802396087e-02 0.0000000000000000e+00  2.9786643734811619e-02 1.40