<?xml version="1.0"?>
<VTKFile type="UnstructuredGrid"  version="0.1"  >
<UnstructuredGrid>
<Piece  NumberOfPoints="1681" NumberOfCells="3200">
<Points>
<DataArray  type="Float64"  NumberOfComponents="3"  format="ascii">0 0 0  0.5 0 0  1 0 0  1.5 0 0  2 0 0  2.5 0 0  3 0 0  3.5 0 0  4 0 0  4.5 0 0  5 0 0  5.5 0 0  6 0 0  6.5 0 0  7 0 0  7.5 0 0  8 0 0  8.5 0 0  9 0 0  9.5 0 0  10 0 0  10.5 0 0  11 0 0  11.5 0 0  12 0 0  12.5 0 0  13 0 0  13.5 0 0  14 0 0  14.5 0 0  15 0 0  15.5 0 0  16 0 0  16.5 0 0  17 0 0  17.5 0 0  18 0 0  18.5 0 0  19 0 0  19.5 0 0  20 0 0  0 0.5 0  0.5 0.5 0  1 0.5 0  1.5 0.5 0  2 0.5 0  2.5 0.5 0  3 0.5 0  3.5 0.5 0  4 0.5 0  4.5 0.5 0  5 0.5 0  5.5 0.5 0  6 0.5 0  6.5 0.5 0  7 0.5 0  7.5 0.5 0  8 0.5 0  8.5 0.5 0  9 0.5 0  9.5 0.5 0  10 0.5 0  10.5 0.5 0  11 0.5 0  11.5 0.5 0  12 0.5 0  12.5 0.5 0  13 0.5 0  13.5 0.5 0  14 0.5 0  14.5 0.5 0  15 0.5 0  15.5 0.5 0  16 0.5 0  16.5 0.5 0  17 0.5 0  17.5 0.5 0  18 0.5 0  18.5 0.5 0  19 0.5 0  19.5 0.5 0  20 0.5 0  0 1 0  0.5 1 0  1 1 0  1.5 1 0  2 1 0  2.5 1 0  3 1 0  3.5 1 0  4 1 0  4.5 1 0  5 1 0  5.5 1 0  6 1 0  6.5 1 0  7 1 0  7.5 1 0  8 1 0  8.5 1 0  9 1 0  9.5 1 0  10 1 0  10.5 1 0  11 1 0  11.5 1 0  12 1 0  12.5 1 0  13 1 0  13.5 1 0  14 1 0  14.5 1 0  15 1 0  15.5 1 0  16 1 0  16.5 1 0  17 1 0  17.5 1 0  18 1 0  18.5 1 0  19 1 0  19.5 1 0  20 1 0  0 1.5 0  0.5 1.5 0  1 1.5 0  1.5 1.5 0  2 1.5 0  2.5 1.5 0  3 1.5 0  3.5 1.5 0  4 1.5 0  4.5 1.5 0  5 1.5 0  5.5 1.5 0  6 1.5 0  6.5 1.5 0  7 1.5 0  7.5 1.5 0  8 1.5 0  8.5 1.5 0  9 1.5 0  9.5 1.5 0  10 1.5 0  10.5 1.5 0  11 1.5 0  11.5 1.5 0  12 1.5 0  12.5 1.5 0  13 1.5 0  13.5 1.5 0  14 1.5 0  14.5 1.5 0  15 1.5 0  15.5 1.5 0  16 1.5 0  16.5 1.5 0  17 1.5 0  17.5 1.5 0  18 1.5 0  18.5 1.5 0  19 1.5 0  19.5 1.5 0  20 1.5 0  0 2 0  0.5 2 0  1 2 0  1.5 2 0  2 2 0  2.5 2 0  3 2 0  3.5 2 0  4 2 0  4.5 2 0  5 2 0  5.5 2 0  6 2 0  6.5 2 0  7 2 0  7.5 2 0  8 2 0  8.5 2 0  9 2 0  9.5 2 0  10 2 0  10.5 2 0  11 2 0  11.5 2 0  12 2 0  12.5 2 0  13 2 0  13.5 2 0  14 2 0  14.5 2 0  15 2 0  15.5 2 0  16 2 0  16.5 2 0  17 2 0  17.5 2 0  18 2 0  18.5 2 0  19 2 0  19.5 2 0  20 2 0  0 2.5 0  0.5 2.5 0  1 2.5 0  1.5 2.5 0  2 2.5 0  2.5 2.5 0  3 2.5 0  3.5 2.5 0  4 2.5 0  4.5 2.5 0  5 2.5 0  5.5 2.5 0  6 2.5 0  6.5 2.5 0  7 2.5 0  7.5 2.5 0  8 2.5 0  8.5 2.5 0  9 2.5 0  9.5 2.5 0  10 2.5 0  10.5 2.5 0  11 2.5 0  11.5 2.5 0  12 2.5 0  12.5 2.5 0  13 2.5 0  13.5 2.5 0  14 2.5 0  14.5 2.5 0  15 2.5 0  15.5 2.5 0  16 2.5 0  16.5 2.5 0  17 2.5 0  17.5 2.5 0  18 2.5 0  18.5 2.5 0  19 2.5 0  19.5 2.5 0  20 2.5 0  0 3 0  0.5 3 0  1 3 0  1.5 3 0  2 3 0  2.5 3 0  3 3 0  3.5 3 0  4 3 0  4.5 3 0  5 3 0  5.5 3 0  6 3 0  6.5 3 0  7 3 0  7.5 3 0  8 3 0  8.5 3 0  9 3 0  9.5 3 0  10 3 0  10.5 3 0  11 3 0  11.5 3 0  12 3 0  12.5 3 0  13 3 0  13.5 3 0  14 3 0  14.5 3 0  15 3 0  15.5 3 0  16 3 0  16.5 3 0  17 3 0  17.5 3 0  18 3 0  18.5 3 0  19 3 0  19.5 3 0  20 3 0  0 3.5 0  0.5 3.5 0  1 3.5 0  1.5 3.5 0  2 3.5 0  2.5 3.5 0  3 3.5 0  3.5 3.5 0  4 3.5 0  4.5 3.5 0  5 3.5 0  5.5 3.5 0  6 3.5 0  6.5 3.5 0  7 3.5 0  7.5 3.5 0  8 3.5 0  8.5 3.5 0  9 3.5 0  9.5 3.5 0  10 3.5 0  10.5 3.5 0  11 3.5 0  11.5 3.5 0  12 3.5 0  12.5 3.5 0  13 3.5 0  13.5 3.5 0  14 3.5 0  14.5 3.5 0  15 3.5 0  15.5 3.5 0  16 3.5 0  16.5 3.5 0  17 3.5 0  17.5 3.5 0  18 3.5 0  18.5 3.5 0  19 3.5 0  19.5 3.5 0  20 3.5 0  0 4 0  0.5 4 0  1 4 0  1.5 4 0  2 4 0  2.5 4 0  3 4 0  3.5 4 0  4 4 0  4.5 4 0  5 4 0  5.5 4 0  6 4 0  6.5 4 0  7 4 0  7.5 4 0  8 4 0  8.5 4 0  9 4 0  9.5 4 0  10 4 0  10.5 4 0  11 4 0  11.5 4 0  12 4 0  12.5 4 0  13 4 0  13.5 4 0  14 4 0  14.5 4 0  15 4 0  15.5 4 0  16 4 0  16.5 4 0  17 4 0  17.5 4 0  18 4 0  18.5 4 0  19 4 0  19.5 4 0  20 4 0  0 4.5 0  0.5 4.5 0  1 4.5 0  1.5 4.5 0  2 4.5 0  2.5 4.5 0  3 4.5 0  3.5 4.5 0  4 4.5 0  4.5 4.5 0  5 4.5 0  5.5 4.5 0  6 4.5 0  6.5 4.5 0  7 4.5 0  7.5 4.5 0  8 4.5 0  8.5 4.5 0  9 4.5 0  9.5 4.5 0  10 4.5 0  10.5 4.5 0  11 4.5 0  11.5 4.5 0  12 4.5 0  12.5 4.5 0  13 4.5 0  13.5 4.5 0  14 4.5 0  14.5 4.5 0  15 4.5 0  15.5 4.5 0  16 4.5 0  16.5 4.5 0  17 4.5 0  17.5 4.5 0  18 4.5 0  18.5 4.5 0  19 4.5 0  19.5 4.5 0  20 4.5 0  0 5 0  0.5 5 0  1 5 0  1.5 5 0  2 5 0  2.5 5 0  3 5 0  3.5 5 0  4 5 0  4.5 5 0  5 5 0  5.5 5 0  6 5 0  6.5 5 0  7 5 0  7.5 5 0  8 5 0  8.5 5 0  9 5 0  9.5 5 0  10 5 0  10.5 5 0  11 5 0  11.5 5 0  12 5 0  12.5 5 0  13 5 0  13.5 5 0  14 5 0  14.5 5 0  15 5 0  15.5 5 0  16 5 0  16.5 5 0  17 5 0  17.5 5 0  18 5 0  18.5 5 0  19 5 0  19.5 5 0  20 5 0  0 5.5 0  0.5 5.5 0  1 5.5 0  1.5 5.5 0  2 5.5 0  2.5 5.5 0  3 5.5 0  3.5 5.5 0  4 5.5 0  4.5 5.5 0  5 5.5 0  5.5 5.5 0  6 5.5 0  6.5 5.5 0  7 5.5 0  7.5 5.5 0  8 5.5 0  8.5 5.5 0  9 5.5 0  9.5 5.5 0  10 5.5 0  10.5 5.5 0  11 5.5 0  11.5 5.5 0  12 5.5 0  12.5 5.5 0  13 5.5 0  13.5 5.5 0  14 5.5 0  14.5 5.5 0  15 5.5 0  15.5 5.5 0  16 5.5 0  16.5 5.5 0  17 5.5 0  17.5 5.5 0  18 5.5 0  18.5 5.5 0  19 5.5 0  19.5 5.5 0  20 5.5 0  0 6 0  0.5 6 0  1 6 0  1.5 6 0  2 6 0  2.5 6 0  3 6 0  3.5 6 0  4 6 0  4.5 6 0  5 6 0  5.5 6 0  6 6 0  6.5 6 0  7 6 0  7.5 6 0  8 6 0  8.5 6 0  9 6 0  9.5 6 0  10 6 0  10.5 6 0  11 6 0  11.5 6 0  12 6 0  12.5 6 0  13 6 0  13.5 6 0  14 6 0  14.5 6 0  15 6 0  15.5 6 0  16 6 0  16.5 6 0  17 6 0  17.5 6 0  18 6 0  18.5 6 0  19 6 0  19.5 6 0  20 6 0  0 6.5 0  0.5 6.5 0  1 6.5 0  1.5 6.5 0  2 6.5 0  2.5 6.5 0  3 6.5 0  3.5 6.5 0  4 6.5 0  4.5 6.5 0  5 6.5 0  5.5 6.5 0  6 6.5 0  6.5 6.5 0  7 6.5 0  7.5 6.5 0  8 6.5 0  8.5 6.5 0  9 6.5 0  9.5 6.5 0  10 6.5 0  10.5 6.5 0  11 6.5 0  11.5 6.5 0  12 6.5 0  12.5 6.5 0  13 6.5 0  13.5 6.5 0  14 6.5 0  14.5 6.5 0  15 6.5 0  15.5 6.5 0  16 6.5 0  16.5 6.5 0  17 6.5 0  17.5 6.5 0  18 6.5 0  18.5 6.5 0  19 6.5 0  19.5 6.5 0  20 6.5 0  0 7 0  0.5 7 0  1 7 0  1.5 7 0  2 7 0  2.5 7 0  3 7 0  3.5 7 0  4 7 0  4.5 7 0  5 7 0  5.5 7 0  6 7 0  6.5 7 0  7 7 0  7.5 7 0  8 7 0  8.5 7 0  9 7 0  9.5 7 0  10 7 0  10.5 7 0  11 7 0  11.5 7 0  12 7 0  12.5 7 0  13 7 0  13.5 7 0  14 7 0  14.5 7 0  15 7 0  15.5 7 0  16 7 0  16.5 7 0  17 7 0  17.5 7 0  18 7 0  18.5 7 0  19 7 0  19.5 7 0  20 7 0  0 7.5 0  0.5 7.5 0  1 7.5 0  1.5 7.5 0  2 7.5 0  2.5 7.5 0  3 7.5 0  3.5 7.5 0  4 7.5 0  4.5 7.5 0  5 7.5 0  5.5 7.5 0  6 7.5 0  6.5 7.5 0  7 7.5 0  7.5 7.5 0  8 7.5 0  8.5 7.5 0  9 7.5 0  9.5 7.5 0  10 7.5 0  10.5 7.5 0  11 7.5 0  11.5 7.5 0  12 7.5 0  12.5 7.5 0  13 7.5 0  13.5 7.5 0  14 7.5 0  14.5 7.5 0  15 7.5 0  15.5 7.5 0  16 7.5 0  16.5 7.5 0  17 7.5 0  17.5 7.5 0  18 7.5 0  18.5 7.5 0  19 7.5 0  19.5 7.5 0  20 7.5 0  0 8 0  0.5 8 0  1 8 0  1.5 8 0  2 8 0  2.5 8 0  3 8 0  3.5 8 0  4 8 0  4.5 8 0  5 8 0  5.5 8 0  6 8 0  6.5 8 0  7 8 0  7.5 8 0  8 8 0  8.5 8 0  9 8 0  9.5 8 0  10 8 0  10.5 8 0  11 8 0  11.5 8 0  12 8 0  12.5 8 0  13 8 0  13.5 8 0  14 8 0  14.5 8 0  15 8 0  15.5 8 0  16 8 0  16.5 8 0  17 8 0  17.5 8 0  18 8 0  18.5 8 0  19 8 0  19.5 8 0  20 8 0  0 8.5 0  0.5 8.5 0  1 8.5 0  1.5 8.5 0  2 8.5 0  2.5 8.5 0  3 8.5 0  3.5 8.5 0  4 8.5 0  4.5 8.5 0  5 8.5 0  5.5 8.5 0  6 8.5 0  6.5 8.5 0  7 8.5 0  7.5 8.5 0  8 8.5 0  8.5 8.5 0  9 8.5 0  9.5 8.5 0  10 8.5 0  10.5 8.5 0  11 8.5 0  11.5 8.5 0  12 8.5 0  12.5 8.5 0  13 8.5 0  13.5 8.5 0  14 8.5 0  14.5 8.5 0  15 8.5 0  15.5 8.5 0  16 8.5 0  16.5 8.5 0  17 8.5 0  17.5 8.5 0  18 8.5 0  18.5 8.5 0  19 8.5 0  19.5 8.5 0  20 8.5 0  0 9 0  0.5 9 0  1 9 0  1.5 9 0  2 9 0  2.5 9 0  3 9 0  3.5 9 0  4 9 0  4.5 9 0  5 9 0  5.5 9 0  6 9 0  6.5 9 0  7 9 0  7.5 9 0  8 9 0  8.5 9 0  9 9 0  9.5 9 0  10 9 0  10.5 9 0  11 9 0  11.5 9 0  12 9 0  12.5 9 0  13 9 0  13.5 9 0  14 9 0  14.5 9 0  15 9 0  15.5 9 0  16 9 0  16.5 9 0  17 9 0  17.5 9 0  18 9 0  18.5 9 0  19 9 0  19.5 9 0  20 9 0  0 9.5 0  0.5 9.5 0  1 9.5 0  1.5 9.5 0  2 9.5 0  2.5 9.5 0  3 9.5 0  3.5 9.5 0  4 9.5 0  4.5 9.5 0  5 9.5 0  5.5 9.5 0  6 9.5 0  6.5 9.5 0  7 9.5 0  7.5 9.5 0  8 9.5 0  8.5 9.5 0  9 9.5 0  9.5 9.5 0  10 9.5 0  10.5 9.5 0  11 9.5 0  11.5 9.5 0  12 9.5 0  12.5 9.5 0  13 9.5 0  13.5 9.5 0  14 9.5 0  14.5 9.5 0  15 9.5 0  15.5 9.5 0  16 9.5 0  16.5 9.5 0  17 9.5 0  17.5 9.5 0  18 9.5 0  18.5 9.5 0  19 9.5 0  19.5 9.5 0  20 9.5 0  0 10 0  0.5 10 0  1 10 0  1.5 10 0  2 10 0  2.5 10 0  3 10 0  3.5 10 0  4 10 0  4.5 10 0  5 10 0  5.5 10 0  6 10 0  6.5 10 0  7 10 0  7.5 10 0  8 10 0  8.5 10 0  9 10 0  9.5 10 0  10 10 0  10.5 10 0  11 10 0  11.5 10 0  12 10 0  12.5 10 0  13 10 0  13.5 10 0  14 10 0  14.5 10 0  15 10 0  15.5 10 0  16 10 0  16.5 10 0  17 10 0  17.5 10 0  18 10 0  18.5 10 0  19 10 0  19.5 10 0  20 10 0  0 10.5 0  0.5 10.5 0  1 10.5 0  1.5 10.5 0  2 10.5 0  2.5 10.5 0  3 10.5 0  3.5 10.5 0  4 10.5 0  4.5 10.5 0  5 10.5 0  5.5 10.5 0  6 10.5 0  6.5 10.5 0  7 10.5 0  7.5 10.5 0  8 10.5 0  8.5 10.5 0  9 10.5 0  9.5 10.5 0  10 10.5 0  10.5 10.5 0  11 10.5 0  11.5 10.5 0  12 10.5 0  12.5 10.5 0  13 10.5 0  13.5 10.5 0  14 10.5 0  14.5 10.5 0  15 10.5 0  15.5 10.5 0  16 10.5 0  16.5 10.5 0  17 10.5 0  17.5 10.5 0  18 10.5 0  18.5 10.5 0  19 10.5 0  19.5 10.5 0  20 10.5 0  0 11 0  0.5 11 0  1 11 0  1.5 11 0  2 11 0  2.5 11 0  3 11 0  3.5 11 0  4 11 0  4.5 11 0  5 11 0  5.5 11 0  6 11 0  6.5 11 0  7 11 0  7.5 11 0  8 11 0  8.5 11 0  9 11 0  9.5 11 0  10 11 0  10.5 11 0  11 11 0  11.5 11 0  12 11 0  12.5 11 0  13 11 0  13.5 11 0  14 11 0  14.5 11 0  15 11 0  15.5 11 0  16 11 0  16.5 11 0  17 11 0  17.5 11 0  18 11 0  18.5 11 0  19 11 0  19.5 11 0  20 11 0  0 11.5 0  0.5 11.5 0  1 11.5 0  1.5 11.5 0  2 11.5 0  2.5 11.5 0  3 11.5 0  3.5 11.5 0  4 11.5 0  4.5 11.5 0  5 11.5 0  5.5 11.5 0  6 11.5 0  6.5 11.5 0  7 11.5 0  7.5 11.5 0  8 11.5 0  8.5 11.5 0  9 11.5 0  9.5 11.5 0  10 11.5 0  10.5 11.5 0  11 11.5 0  11.5 11.5 0  12 11.5 0  12.5 11.5 0  13 11.5 0  13.5 11.5 0  14 11.5 0  14.5 11.5 0  15 11.5 0  15.5 11.5 0  16 11.5 0  16.5 11.5 0  17 11.5 0  17.5 11.5 0  18 11.5 0  18.5 11.5 0  19 11.5 0  19.5 11.5 0  20 11.5 0  0 12 0  0.5 12 0  1 12 0  1.5 12 0  2 12 0  2.5 12 0  3 12 0  3.5 12 0  4 12 0  4.5 12 0  5 12 0  5.5 12 0  6 12 0  6.5 12 0  7 12 0  7.5 12 0  8 12 0  8.5 12 0  9 12 0  9.5 12 0  10 12 0  10.5 12 0  11 12 0  11.5 12 0  12 12 0  12.5 12 0  13 12 0  13.5 12 0  14 12 0  14.5 12 0  
[...]
<PointData  Vectors="f_2975-0"> 
<DataArray  type="Float64"  Name="f_2975-0"  NumberOfComponents="3" format="ascii">0.0000000000000000e+00 0.0000000000000000e+00 0.0000000000000000e+00  2.6364222906461139e-07 0.0000000000000000e+00 0.0000000000000000e+00  -4.9493993006619546e-06 0.0000000000000000e+00 0.0000000000000000e+00  -2.3926930094116289e-05 0.0000000000000000e+00 0.0000000000000000e+00  -6.3503954447139113e-05 0.0000000000000000e+00 0.0000000000000000e+00  -1.3024531443394844e-04 0.0000000000000000e+00 0.0000000000000000e+00  -2.3046506425154040e-04 0.0000000000000000e+00 0.0000000000000000e+00  -3.7014733141024954e-04 0.0000000000000000e+00 0.0000000000000000e+00  -5.5484996779357027e-04 0.0000000000000000e+00 0.0000000000000000e+00  -7.8959217422534995e-04 0.0000000000000000e+00 0.0000000000000000e+00  -1.0787216988110010e-03 0.0000000000000000e+00 0.0000000000000000e+00  -1.4257567779276674e-03 0.0000000000000000e+00 0.0000000000000000e+00  -1.8331975259544926e-03 0.0000000000000000e+00 0.0000000000000000e+00  -2.3023008366300658e-03 0.0000000000000000e+00 0.0000000000000000e+00  -2.8328121270354942e-03 0.0000000000000000e+00 0.0000000000000000e+00  -3.4226464784271023e-03 0.0000000000000000e+00 0.0000000000000000e+00  -4.0675109278980569e-03 0.0000000000000000e+00 0.0000000000000000e+00  -4.7604588543579589e-03 0.0000000000000000e+00 0.0000000000000000e+00  -5.4913665883306768e-03 0.0000000000000000e+00 0.0000000000000000e+00  -6.2463215504341566e-03 0.0000000000000000e+00 0.0000000000000000e+00  -7.0069103640927810e-03 0.0000000000000000e+00 0.0000000000000000e+00  -7.7493944381128504e-03 0.0000000000000000e+00 0.0000000000000000e+00  -8.4437593784579060e-03 0.0000000000000000e+00 0.0000000000000000e+00  -9.0526231137795770e-03 0.0000000000000000e+00 0.0000000000000000e+00  -9.5299855794030875e-03 0.0000000000000000e+00 0.0000000000000000e+00  -9.8197998785055571e-03 0.0000000000000000e+00 0.0000000000000000e+00  -9.8543405824378181e-03 0.0000000000000000e+00 0.0000000000000000e+00  -9.5523386403005943e-03 0.0000000000000000e+00 0.0000000000000000e+00  -8.8168434203788129e-03 0.0000000000000000e+00 0.0000000000000000e+00  -7.5327595867892110e-03 0.0000000000000000e+00 0.0000000000000000e+00  -5.5639882702623843e-03 0.0000000000000000e+00 0.0000000000000000e+00  -2.7500761125932431e-03 0.0000000000000000e+00 0.0000000000000000e+00  1.0977610154424200e-03 0.0000000000000000e+00 0.0000000000000000e+00  6.2014255121689010e-03 0.0000000000000000e+00 0.0000000000000000e+00  1.2821799316226328e-02 0.0000000000000000e+00 0.0000000000000000e+00  2.1266056030353961e-02 0.0000000000000000e+00 0.0000000000000000e+00  3.1896980113377070e-02 0.0000000000000000e+00 0.0000000000000000e+00  4.5145157373753284e-02 0.0000000000000000e+00 0.0000000000000000e+00  6.1525560286011971e-02 0.0000000000000000e+00 0.0000000000000000e+00  8.1662165101389531e-02 0.0000000000000000e+00 0.0000000000000000e+00  1.0633234467651173e-01 0.0000000000000000e+00 0.0000000000000000e+00  0.0000000000000000e+00 2.6364222511309830e-07 0.0000000000000000e+00  5.1523525172914340e-06 5.1523525181756491e-06 0.0000000000000000e+00  3.1381152722480413e-06 1.6667764900240170e-05 0.0000000000000000e+00  -1.2438512544503599e-05 3.4892964811041868e-05 0.0000000000000000e+00  -4.8484170617258798e-05 6.0049306782290917e-05 0.0000000000000000e+00  -1.1164507996948270e-04 9.2156924969364289e-05 0.0000000000000000e+00  -2.0826947996123202e-04 1.3112217780808199e-04 0.0000000000000000e+00  -3.4435700382229344e-04 1.7678832153583560e-04 0.0000000000000000e+00  -5.2547504838846345e-04 2.2895276704921965e-04 0.0000000000000000e+00  -7.5665100889269604e-04 2.8737117008965880e-04 0.0000000000000000e+00  -1.0422412410411291e-03 3.5175694533257551e-04 0.0000000000000000e+00  -1.3857737682919573e-03 4.2177916924472983e-04 0.0000000000000000e+00  -1.7897600497220239e-03 4.9705988144446386e-04 0.0000000000000000e+00  -2.2554700795021235e-03 5.7717117358252674e-04 0.0000000000000000e+00  -2.7826642244362068e-03 6.6163226440355688e-04 0.0000000000000000e+00  -3.3692743810035701e-03 7.4990670415475095e-04 0.0000000000000000e+00  -4.0110262138688063e-03 8.4139983953410993e-04 0.0000000000000000e+00  -4.7009934186190722e-03 9.3545667398371485e-04 0.0000000000000000e+00  -5.4290741328035796e-03 1.0313602658785000e-03 0.0000000000000000e+00  -6.1813787928333029e-03 1.1283308163397246e-03 0.0000000000000000e+00  -6.9395178734833239e-03 1.2255256059441287e-03 0.0000000000000000e+00  -7.6797769963600476e-03 1.3220399445467951e-03 0.0000000000000000e+00  -8.3721657574485405e-03 1.4169092992382445e-03 0.0000000000000000e+00  -8.9793251492338959e-03 1.5091127607366869e-03 0.0000000000000000e+00  -9.4552764134990148e-03 1.5975779964063157e-03 0.0000000000000000e+00  -9.7439912352922636e-03 1.6811878169408691e-03 0.0000000000000000e+00  -9.7777589311593780e-03 1.7587884509962176e-03 0.0000000000000000e+00  -9.4753200895701887e-03 1.8291995747566822e-03 0.0000000000000000e+00  -8.7397271666483211e-03 1.8912260789143008e-03 0.0000000000000000e+00  -7.4558797050107801e-03 1.9436714713882532e-03 0.0000000000000000e+00  -5.4876635746585502e-03 1.9853527085704247e-03 0.0000000000000000e+00  -2.6745977274163090e-03 2.0151161215648992e-03 0.0000000000000000e+00  1.1721448170932990e-03 2.0318539526371906e-03 0.0000000000000000e+00  6.2745275522672729e-03 2.0345208197382267e-03 0.0000000000000000e+00  1.2893514303133237e-02 2.0221491204251985e-03 0.0000000000000000e+00  2.1336379417461852e-02 1.9938619133623007e-03 0.0000000000000000e+00  3.1966004669665746e-02 1.9488817535069495e-03 0.0000000000000000e+00  4.5212959285764256e-02 1.8865388974916484e-03 0.0000000000000000e+00  6.1591547778814870e-02 1.8063138849870042e-03 0.0000000000000000e+00  8.1721429638664689e-02 1.7080814207224681e-03 0.0000000000000000e+00  1.0635489700452354e-01 1.5930110105192223e-03 0.0000000000000000e+00  0.0000000000000000e+00 -4.9493993076196170e-06 0.0000000000000000e+00  1.6667764902476998e-05 3.1381152772310934e-06 0.0000000000000000e+00  2.5574006058396145e-05 2.5574006058898398e-05 0.0000000000000000e+00  2.0746814907188778e-05 6.2075148091809843e-05 0.0000000000000000e+00  -4.5545427793407135e-06 1.1258024035871937e-04 0.0000000000000000e+00  -5.6946215560636622e-05 1.7696714364992267e-04 0.0000000000000000e+00  -1.4278740667522679e-04 2.5502578300865464e-04 0.0000000000000000e+00  -2.6809619587777803e-04 3.4645457676001898e-04 0.0000000000000000e+00  -4.3845967702971542e-04 4.5086358653497572e-04 0.0000000000000000e+00  -6.5892645435861746e-04 5.6777640831184113e-04 0.0000000000000000e+00  -9.3387682732889380e-04 6.9662920625763048e-04 0.0000000000000000e+00  -1.2668665501833843e-03 8.3676749501828372e-04 0.0000000000000000e+00  -1.6604393436006242e-03 9.8744153359237052e-04 0.0000000000000000e+00  -2.1159024729872590e-03 1.1478009965730093e-03 0.0000000000000000e+00  -2.6330588484387864e-03 1.3168893982030054e-03 0.0000000000000000e+00  -3.2098882544860769e-03 1.4936386343187993e-03 0.0000000000000000e+00  -3.8421694791371669e-03 1.6768639579375108e-03 0.0000000000000000e+00  -4.5230342806608769e-03 1.8652596911677541e-03 0.0000000000000000e+00  -5.2424433051664705e-03 2.0573959798535751e-03 0.0000000000000000e+00  -5.9865732385069028e-03 2.2517169092564201e-03 0.0000000000000000e+00  -6.7371036146859553e-03 2.4465403109405529e-03 0.0000000000000000e+00  -7.4703907542040130e-03 2.6400595997295136e-03 0.0000000000000000e+00  -8.1565151728165870e-03 2.8303479811828342e-03 0.0000000000000000e+00  -8.7581873316419818e-03 3.0153653608307185e-03 0.0000000000000000e+00  -9.2294945668259260e-03 3.1929682639004193e-03 0.0000000000000000e+00  -9.5144691197808981e-03 3.3609230339173820e-03 0.0000000000000000e+00  -9.5454529415273121e-03 3.5169225176829941e-03 0.0000000000000000e+00  -9.2412287609113068e-03 3.6586063573901709e-03 0.0000000000000000e+00  -8.5048779650363504e-03 3.7835848955621925e-03 0.0000000000000000e+00  -7.2213130221261733e-03 3.8894665506676710e-03 0.0000000000000000e+00  -5.2544139379904018e-03 3.9738883390566127e-03 0.0000000000000000e+00  -2.4436723959219064e-03 4.0345490000750685e-03 0.0000000000000000e+00  1.3997893735150514e-03 4.0692439222625417e-03 0.0000000000000000e+00  6.4980100220787271e-03 4.0759007635520978e-03 0.0000000000000000e+00  1.3112050597906403e-02 4.0526143163509224e-03 0.0000000000000000e+00  2.1549294669975457e-02 3.9976788763593889e-03 0.0000000000000000e+00  3.2172716449445922e-02 3.9096162298042341e-03 0.0000000000000000e+00  4.5412888619711010e-02 3.7871954263394209e-03 0.0000000000000000e+00  6.1783868797014155e-02 3.6294180275580280e-03 0.0000000000000000e+00  8.1904628530957313e-02 3.4352895884959206e-03 0.0000000000000000e+00  1.0652845847044201e-01 3.2023698392409988e-03 0.0000000000000000e+00  0.0000000000000000e+00 -2.3926930097277175e-05 0.0000000000000000e+00  3.4892964813222476e-05 -1.2438512541766087e-05 0.0000000000000000e+00  6.2075148096037621e-05 2.0746814906069989e-05 0.0000000000000000e+00  7.5321384781954704e-05 7.5321384774994763e-05 0.0000000000000000e+00  6.8028308504885070e-05 1.5106508198340669e-04 0.0000000000000000e+00  3.3622643284055443e-05 2.4771287250683808e-04 0.0000000000000000e+00  -3.4246532305225299e-05 3.6490240239494181e-04 0.0000000000000000e+00  -1.4160662464600635e-04 5.0216207499456699e-04 0.0000000000000000e+00  -2.9406493093908539e-04 6.5890483088903052e-04 0.0000000000000000e+00  -4.9669852694516530e-04 8.3442230717552376e-04 0.0000000000000000e+00  -7.5392382465181058e-04 1.0278785167237728e-03 0.0000000000000000e+00  -1.0693405197182326e-03 1.2383027602629112e-03 0.0000000000000000e+00  -1.4455445365304971e-03 1.4645817937352834e-03 0.0000000000000000e+00  -1.8839040209718330e-03 1.7054514825764310e-03 0.0000000000000000e+00  -2.3842917117397502e-03 1.9594882816380984e-03 0.0000000000000000e+00  -2.9447662341819695e-03 2.2251009284912542e-03 0.0000000000000000e+00  -3.5611940454350513e-03 2.5005227636722620e-03 0.0000000000000000e+00  -4.2268029371063803e-03 2.7838051139008487e-03 0.0000000000000000e+00  -4.9316571788539307e-03 3.0728121971520463e-03 0.0000000000000000e+00  -5.6620435586201869e-03 3.3652180329268046e-03 0.0000000000000000e+00  -6.3997567165979992e-03 3.6585058620297989e-03 0.0000000000000000e+00  -7.1212712258923432e-03 3.9499705953094906e-03 0.0000000000000000e+00  -7.7967867469172000e-03 4.2367248145257479e-03 0.0000000000000000e+00  -8.3891311225689803e-03 4.5157088368462852e-03 0.0000000000000000e+00  -8.8525042613478346e-03 4.7837053220779425e-03 0.0000000000000000e+00  -9.1310427537808613e-03 5.0373588435348830e-03 0.0000000000000000e+00  -9.1571809392233059e-03 5.2732007537834909e-03 0.0000000000000000e+00  -8.8497779784428021e-03 5.4876795487012239e-03 0.0000000000000000e+00  -8.1119715720228205e-03 5.6771967619629335e-03 0.0000000000000000e+00  -6.8287061783352072e-03 5.8381481987490082e-03 0.0000000000000000e+00  -4.8638653890962277e-03 5.9669700351951960e-03 0.0000000000000000e+00  -2.0569123494583773e-03 6.0601889557302920e-03 0.0000000000000000e+00  1.7810943625363011e-03 6.1144750522388784e-03 0.0000000000000000e+00  6.8722938056293894e-03 6.1266956091599019e-03 0.0000000000000000e+00  1.3477883398084348e-02 6.0939669807559592e-03 0.0000000000000000e+00  2.1905413984965948e-02 6.0136999501750783e-03 0.0000000000000000e+00  3.2518045615231167e-02 5.8836291331882985e-03 0.0000000000000000e+00  4.5746530140240695e-02 5.7018018379169678e-03 0.0000000000000000e+00  6.2105045965303592e-02 5.4664548581278803e-03 0.0000000000000000e+00  8.2212523365833123e-02 5.1755850866099058e-03 0.0000000000000000e+00  1.0682180524304534e-01 4.8258151786999045e-03 0.0000000000000000e+00  0.0000000000000000e+00 -6.3503954451763018e-05 0.0000000000000000e+00  6.0049306777243461e-05 -4.8484170618575887e-05 0.0000000000000000e+00  1.1258024035789328e-04 -4.5545427787587511e-06 0.0000000000000000e+00  1.5106508198317993e-04 6.8028308502527554e-05 0.0000000000000000e+00  1.6894665826967109e-04 1.6894665826782429e-04 0.0000000000000000e+00  1.5968404166260977e-04 2.9781444121575738e-04 0.0000000000000000e+00  1.1693246443739785e-04 4.5412898641600746e-04 0.0000000000000000e+00  3.4653982919729375e-05 6.3725308764108997e-04 0.0000000000000000e+00  -9.2781968436613839e-05 8.4640430933938574e-04 0.0000000000000000e+00  -2.7048739629918805e-04 1.0806452324671309e-03 0.0000000000000000e+00  -5.0292521717714095e-04 1.3388731375194591e-03 0.0000000000000000e+00  -7.9375349737852738e-04 1.6198089464118913e-03 0.0000000000000000e+00  -1.1456388203355610e-03 1.9219855677614236e-03 0.0000000000000000e+00  -1.5600326749594647e-03 2.2437358995391638e-03 0.0000000000000000e+00  -2.0369040822734745e-03 2.5831808216739641e-03 0.0000000000000000e+00  -2.5744209167827829e-03 2.9382175850100009e-03 0.0000000000000000e+00  -3.1685715809992012e-03 3.3065090699344150e-03 0.0000000000000000e+00  -3.8127178793524153e-03 3.6854744483442955e-03 0.0000000000000000e+00  -4.4970691221293494e-03 4.0722818362544932e-03 0.0000000000000000e+00  -5.2080666684000279e-03 4.4638435718917478e-03 0.0000000000000000e+00  -5.9276672645175782e-03 4.8568147925088425e-03 0.0000000000000000e+00  -6.6325125988224787e-03 5.2475960105574189e-03 0.0000000000000000e+00  -7.2929713783302713e-03 5.6323404004691340e-03 0.0000000000000000e+00  -7.8720387875602614e-03 6.0069664964646106e-03 0.0000000000000000e+00  -8.3240761883322089e-03 6.3671769627347014e-03 0.0000000000000000e+00  -8.5933710407224469e-03 6.7084840230860259e-03 0.0000000000000000e+00  -8.6124928247977538e-03 7.0262420196374430e-03 0.0000000000000000e+00  -8.3004146141261986e-03 7.3156874006292819e-03 0.0000000000000000e+00  -7.5603610749283828e-03 7.5719862054526195e-03 0.0000000000000000e+00  -6.2773309227191132e-03 7.7902888084255828e-03 0.0000000000000000e+00  -4.3152237255907611e-03 7.9657912847048758e-03 0.0000000000000000e+00  -1.5134752421086064e-03 8.0938022448466262e-03 0.0000000000000000e+00  2.3169308861441438e-03 8.1698132960093608e-03 0.0000000000000000e+00  7.3982589105965986e-03 8.1895702999741984e-03 0.0000000000000000e+00  1.3991881985925122e-02 8.1491409851217490e-03 0.0000000000000000e+00  2.2405573345625221e-02 8.0449713861247916e-03 0.0000000000000000e+00  3.3002749992219825e-02 7.8739170339192505e-03 0.0000000000000000e+00  4.6214424641654338e-02 7.6332210759010215e-03 0.0000000000000000e+00  6.2554966770408296e-02 7.3203882267798420e-03 0.0000000000000000e+00  8.2643277413283908e-02 6.9328912976292555e-03 0.0000000000000000e+00  1.0723174042054942e-01 6.4677688881373159e-03 0.0000000000000000e+00  0.0000000000000000e+00 -1.3024531443336869e-04 0.0000000000000000e+00  9.2156924970825468e-05 -1.1164507996872337e-04 0.0000000000000000e+00  1.7696714365245065e-04 -5.6946215565343834e-05 0.0000000000000000e+00  2.4771287251514653e-04 3.3622643278047282e-05 0.0000000000000000e+00  2.9781444122105750e-04 1.5968404165869892e-04 0.0000000000000000e+00  3.2074853641590983e-04 3.2074853641523183e-04 0.0000000000000000e+00  3.1017276975102057e-04 5.1618573771765720e-04 0.0000000000000000e+00  2.6003560506873821e-04 7.4520395498505908e-04 0.0000000000000000e+00  1.6467850730957748e-04 1.0068359617089037e-03 0.0000000000000000e+00  1.8947414214664586e-05 1.2999258544319813e-03 0.0000000000000000e+00  -1.8167721983815629e-04 1.6231153347814435e-03 0.0000000000000000e+00  -4.4092541212290270e-04 1.9748290951043480e-03 0.0000000000000000e+00  -7.6155176595996263e-04 2.3532594516122753e-03 0.0000000000000000e+00  -1.1451124699110614e-03 2.7563505482923077e-03 0.0000000000000000e+00  -1.5916983084130112e-03 3.1817825501892932e-03 0.0000000000000000e+00  -2.0996160631290674e-03 3.6269563210755452e-03 0.0000000000000000e+00  -2.6650098902472647e-03 4.0889791556648182e-03 0.0000000000000000e+00  -3.2814134492100515e-03 4.5646522110593139e-03 0.0000000000000000e+00  -3.9392227457515066e-03 5.0504603553165623e-03 0.0000000000000000e+00  -4.6250788348125224e-03 5.5425652180502846e-03 0.0000000000000000e+00  -5.3211486835511050e-03 6.0368022851242445e-03 0.0000000000000000e+00  -6.0042915688109585e-03 6.5286829224690144e-03 0.0000000000000000e+00  -6.6450972825043376e-03 7.0134022358545427e-03 0.0000000000000000e+00  -7.2067809916269180e-03 7.4858536681055039e-03 0.0000000000000000e+00  -7.6439176226457788e-03 7.9406511943395028e-03 0.0000000000000000e+00  -7.9009957920252120e-03 8.3721598899070600e-03 0.0000000000000000e+00  -7.9107671413224841e-03 8.7745355050641623e-03 0.0000000000000000e+00  -7.5923608518420373e-03 9.1417734727953347e-03 0.0000000000000000e+00  -6.8491242889099331e-03 9.4677674873189198e-03 0.0000000000000000e+00  -5.5661380451447074e-03 9.7463774040536903e-03 0.0000000000000000e+00  -3.6073355807384948e-03 9.9715057022296046e-03 0.0000000000000000e+00  -8.1213204728219587e-04 1.0137181082478387e-02 0.0000000000000000e+00  3.0085693557256759e-03 1.0237646877022459e-02 0.0000000000000000e+00  8.0771765518593344e-03 1.0267450697315061e-02 0.0000000000000000e+00  1.4655269797771354e-02 1.0221529864949608e-02 0.0000000000000000e+00  2.3050887519127383e-02 1.0095284187158627e-02 0.0000000000000000e+00  3.3627754522913875e-02 9.8846229947448690e-03 0.0000000000000000e+00  4.6817200358002110e-02 9.5859677119262930e-03 0.0000000000000000e+00  6.3133862097989685e-02 9.1961913563396273e-03 0.0000000000000000e+00  8.3196805147629088e-02 8.7125074423266939e-03 0.0000000000000000e+00  1.0775860044490350e-01 8.1324408113019192e-03 0.0000000000000000e+00  0.0000000000000000e+00 -2.3046506424995712e-04 0.0000000000000000e+00  1.3112217780958960e-04 -2.0826947996372224e-04 0.0000000000000000e+00  2.5502578301072595e-04 -1.4278740667697268e-04 0.0000000000000000e+00  3.6490240239227506e-04 -3.4246532309770085e-05 0.0000000000000000e+00  4.5412898641011216e-04 1.1693246443367733e-04 0.0000000000000000e+00  5.1618573771435028e-04 3.1017276974912273e-04 0.0000000000000000e+00  5.4472907005413500e-04 5.4472907005648783e-04 0.0000000000000000e+00  5.3369167444107047e-04 8.1966799477276909e-04 0.0000000000000000e+00  4.7738338477099003e-04 1.1338512041576165e-03 0.0000000000000000e+00  3.7060195762185451e-04 1.4859190263640909e-03 0.0000000000000000e+00  2.0876211715227806e-04 1.8742733460410950e-03 0.0000000000000000e+00  -1.1950575670830211e-05 2.2970594063391743e-03 0.0000000000000000e+00  -2.9439492753685533e-04 2.7521466553740029e-03 0.0000000000000000e+00  -6.4025201130595347e-04 3.2371089907604423e-03 0.0000000000000000e+00  -1.0497587830415383e-03 3.7492048853219190e-03 0.0000000000000000e+00  -1.5213897097550238e-03 4.2853579766423218e-03 0.0000000000000000e+00  -2.0514779105072047e-03 4.8421387954055341e-03 0.0000000000000000e+00  -2.6337665041539452e-03 5.4157483983604598e-03 0.0000000000000000e+00  -3.2588800451942017e-03 6.0020047620523804e-03 0.0000000000000000e+00  -3.9137051145029956e-03 6.5963328789550657e-03 0.0000000000000000e+00  -4.5806682925210408e-03 7.1937595736485515e-03 0.0000000000000000e+00  -5.2368988272742840e-03 7.7889141174128460e-03 0.0000000000000000e+00  -5.8532622245504925e-03 8.3760357564750514e-03 0.0000000000000000e+00  -6.3932495832420382e-03 8.9489892746202788e-03 0.0000000000000000e+00  -6.8117055514048180e-03 9.5012896741165226e-03 0.0000000000000000e+00  -7.0533749682931282e-03 1.0026136968850326e-02 0.0000000000000000e+00  -7.0512441417836360e-03 1.0516461927469238e-02 0.0000000000000000e+00  -6.7246466839812960e-03 1.0964983367652023e-02 0.0000000000000000e+00  -5.9770950715087355e-03 1.1364277267648281e-02 0.0000000000000000e+00  -4.6937864961193697e-03 1.1706857508276245e-02 0.0000000000000000e+00  -2.7387135937767316e-03 1.1985267459997326e-02 0.0000000000000000e+00  4.8714857428522973e-05 1.2192180850099788e-02 0.0000000000000000e+00  3.8576742638491376e-03 1.2320509333431977e-02 0.0000000000000000e+00  8.9107277290364287e-03 1.2363512874207774e-02 0.0000000000000000e+00  1.5469687951179079e-02 1.2314907342955594e-02 0.0000000000000000e+00  2.3842898126895492e-02