<?xml version="1.0"?>
<VTKFile type="UnstructuredGrid"  version="0.1"  >
<UnstructuredGrid>
<Piece  NumberOfPoints="1681" NumberOfCells="3200">
<Points>
<DataArray  type="Float64"  NumberOfComponents="3"  format="ascii">0 0 0  0.5 0 0  1 0 0  1.5 0 0  2 0 0  2.5 0 0  3 0 0  3.5 0 0  4 0 0  4.5 0 0  5 0 0  5.5 0 0  6 0 0  6.5 0 0  7 0 0  7.5 0 0  8 0 0  8.5 0 0  9 0 0  9.5 0 0  10 0 0  10.5 0 0  11 0 0  11.5 0 0  12 0 0  12.5 0 0  13 0 0  13.5 0 0  14 0 0  14.5 0 0  15 0 0  15.5 0 0  16 0 0  16.5 0 0  17 0 0  17.5 0 0  18 0 0  18.5 0 0  19 0 0  19.5 0 0  20 0 0  0 0.5 0  0.5 0.5 0  1 0.5 0  1.5 0.5 0  2 0.5 0  2.5 0.5 0  3 0.5 0  3.5 0.5 0  4 0.5 0  4.5 0.5 0  5 0.5 0  5.5 0.5 0  6 0.5 0  6.5 0.5 0  7 0.5 0  7.5 0.5 0  8 0.5 0  8.5 0.5 0  9 0.5 0  9.5 0.5 0  10 0.5 0  10.5 0.5 0  11 0.5 0  11.5 0.5 0  12 0.5 0  12.5 0.5 0  13 0.5 0  13.5 0.5 0  14 0.5 0  14.5 0.5 0  15 0.5 0  15.5 0.5 0  16 0.5 0  16.5 0.5 0  17 0.5 0  17.5 0.5 0  18 0.5 0  18.5 0.5 0  19 0.5 0  19.5 0.5 0  20 0.5 0  0 1 0  0.5 1 0  1 1 0  1.5 1 0  2 1 0  2.5 1 0  3 1 0  3.5 1 0  4 1 0  4.5 1 0  5 1 0  5.5 1 0  6 1 0  6.5 1 0  7 1 0  7.5 1 0  8 1 0  8.5 1 0  9 1 0  9.5 1 0  10 1 0  10.5 1 0  11 1 0  11.5 1 0  12 1 0  12.5 1 0  13 1 0  13.5 1 0  14 1 0  14.5 1 0  15 1 0  15.5 1 0  16 1 0  16.5 1 0  17 1 0  17.5 1 0  18 1 0  18.5 1 0  19 1 0  19.5 1 0  20 1 0  0 1.5 0  0.5 1.5 0  1 1.5 0  1.5 1.5 0  2 1.5 0  2.5 1.5 0  3 1.5 0  3.5 1.5 0  4 1.5 0  4.5 1.5 0  5 1.5 0  5.5 1.5 0  6 1.5 0  6.5 1.5 0  7 1.5 0  7.5 1.5 0  8 1.5 0  8.5 1.5 0  9 1.5 0  9.5 1.5 0  10 1.5 0  10.5 1.5 0  11 1.5 0  11.5 1.5 0  12 1.5 0  12.5 1.5 0  13 1.5 0  13.5 1.5 0  14 1.5 0  14.5 1.5 0  15 1.5 0  15.5 1.5 0  16 1.5 0  16.5 1.5 0  17 1.5 0  17.5 1.5 0  18 1.5 0  18.5 1.5 0  19 1.5 0  19.5 1.5 0  20 1.5 0  0 2 0  0.5 2 0  1 2 0  1.5 2 0  2 2 0  2.5 2 0  3 2 0  3.5 2 0  4 2 0  4.5 2 0  5 2 0  5.5 2 0  6 2 0  6.5 2 0  7 2 0  7.5 2 0  8 2 0  8.5 2 0  9 2 0  9.5 2 0  10 2 0  10.5 2 0  11 2 0  11.5 2 0  12 2 0  12.5 2 0  13 2 0  13.5 2 0  14 2 0  14.5 2 0  15 2 0  15.5 2 0  16 2 0  16.5 2 0  17 2 0  17.5 2 0  18 2 0  18.5 2 0  19 2 0  19.5 2 0  20 2 0  0 2.5 0  0.5 2.5 0  1 2.5 0  1.5 2.5 0  2 2.5 0  2.5 2.5 0  3 2.5 0  3.5 2.5 0  4 2.5 0  4.5 2.5 0  5 2.5 0  5.5 2.5 0  6 2.5 0  6.5 2.5 0  7 2.5 0  7.5 2.5 0  8 2.5 0  8.5 2.5 0  9 2.5 0  9.5 2.5 0  10 2.5 0  10.5 2.5 0  11 2.5 0  11.5 2.5 0  12 2.5 0  12.5 2.5 0  13 2.5 0  13.5 2.5 0  14 2.5 0  14.5 2.5 0  15 2.5 0  15.5 2.5 0  16 2.5 0  16.5 2.5 0  17 2.5 0  17.5 2.5 0  18 2.5 0  18.5 2.5 0  19 2.5 0  19.5 2.5 0  20 2.5 0  0 3 0  0.5 3 0  1 3 0  1.5 3 0  2 3 0  2.5 3 0  3 3 0  3.5 3 0  4 3 0  4.5 3 0  5 3 0  5.5 3 0  6 3 0  6.5 3 0  7 3 0  7.5 3 0  8 3 0  8.5 3 0  9 3 0  9.5 3 0  10 3 0  10.5 3 0  11 3 0  11.5 3 0  12 3 0  12.5 3 0  13 3 0  13.5 3 0  14 3 0  14.5 3 0  15 3 0  15.5 3 0  16 3 0  16.5 3 0  17 3 0  17.5 3 0  18 3 0  18.5 3 0  19 3 0  19.5 3 0  20 3 0  0 3.5 0  0.5 3.5 0  1 3.5 0  1.5 3.5 0  2 3.5 0  2.5 3.5 0  3 3.5 0  3.5 3.5 0  4 3.5 0  4.5 3.5 0  5 3.5 0  5.5 3.5 0  6 3.5 0  6.5 3.5 0  7 3.5 0  7.5 3.5 0  8 3.5 0  8.5 3.5 0  9 3.5 0  9.5 3.5 0  10 3.5 0  10.5 3.5 0  11 3.5 0  11.5 3.5 0  12 3.5 0  12.5 3.5 0  13 3.5 0  13.5 3.5 0  14 3.5 0  14.5 3.5 0  15 3.5 0  15.5 3.5 0  16 3.5 0  16.5 3.5 0  17 3.5 0  17.5 3.5 0  18 3.5 0  18.5 3.5 0  19 3.5 0  19.5 3.5 0  20 3.5 0  0 4 0  0.5 4 0  1 4 0  1.5 4 0  2 4 0  2.5 4 0  3 4 0  3.5 4 0  4 4 0  4.5 4 0  5 4 0  5.5 4 0  6 4 0  6.5 4 0  7 4 0  7.5 4 0  8 4 0  8.5 4 0  9 4 0  9.5 4 0  10 4 0  10.5 4 0  11 4 0  11.5 4 0  12 4 0  12.5 4 0  13 4 0  13.5 4 0  14 4 0  14.5 4 0  15 4 0  15.5 4 0  16 4 0  16.5 4 0  17 4 0  17.5 4 0  18 4 0  18.5 4 0  19 4 0  19.5 4 0  20 4 0  0 4.5 0  0.5 4.5 0  1 4.5 0  1.5 4.5 0  2 4.5 0  2.5 4.5 0  3 4.5 0  3.5 4.5 0  4 4.5 0  4.5 4.5 0  5 4.5 0  5.5 4.5 0  6 4.5 0  6.5 4.5 0  7 4.5 0  7.5 4.5 0  8 4.5 0  8.5 4.5 0  9 4.5 0  9.5 4.5 0  10 4.5 0  10.5 4.5 0  11 4.5 0  11.5 4.5 0  12 4.5 0  12.5 4.5 0  13 4.5 0  13.5 4.5 0  14 4.5 0  14.5 4.5 0  15 4.5 0  15.5 4.5 0  16 4.5 0  16.5 4.5 0  17 4.5 0  17.5 4.5 0  18 4.5 0  18.5 4.5 0  19 4.5 0  19.5 4.5 0  20 4.5 0  0 5 0  0.5 5 0  1 5 0  1.5 5 0  2 5 0  2.5 5 0  3 5 0  3.5 5 0  4 5 0  4.5 5 0  5 5 0  5.5 5 0  6 5 0  6.5 5 0  7 5 0  7.5 5 0  8 5 0  8.5 5 0  9 5 0  9.5 5 0  10 5 0  10.5 5 0  11 5 0  11.5 5 0  12 5 0  12.5 5 0  13 5 0  13.5 5 0  14 5 0  14.5 5 0  15 5 0  15.5 5 0  16 5 0  16.5 5 0  17 5 0  17.5 5 0  18 5 0  18.5 5 0  19 5 0  19.5 5 0  20 5 0  0 5.5 0  0.5 5.5 0  1 5.5 0  1.5 5.5 0  2 5.5 0  2.5 5.5 0  3 5.5 0  3.5 5.5 0  4 5.5 0  4.5 5.5 0  5 5.5 0  5.5 5.5 0  6 5.5 0  6.5 5.5 0  7 5.5 0  7.5 5.5 0  8 5.5 0  8.5 5.5 0  9 5.5 0  9.5 5.5 0  10 5.5 0  10.5 5.5 0  11 5.5 0  11.5 5.5 0  12 5.5 0  12.5 5.5 0  13 5.5 0  13.5 5.5 0  14 5.5 0  14.5 5.5 0  15 5.5 0  15.5 5.5 0  16 5.5 0  16.5 5.5 0  17 5.5 0  17.5 5.5 0  18 5.5 0  18.5 5.5 0  19 5.5 0  19.5 5.5 0  20 5.5 0  0 6 0  0.5 6 0  1 6 0  1.5 6 0  2 6 0  2.5 6 0  3 6 0  3.5 6 0  4 6 0  4.5 6 0  5 6 0  5.5 6 0  6 6 0  6.5 6 0  7 6 0  7.5 6 0  8 6 0  8.5 6 0  9 6 0  9.5 6 0  10 6 0  10.5 6 0  11 6 0  11.5 6 0  12 6 0  12.5 6 0  13 6 0  13.5 6 0  14 6 0  14.5 6 0  15 6 0  15.5 6 0  16 6 0  16.5 6 0  17 6 0  17.5 6 0  18 6 0  18.5 6 0  19 6 0  19.5 6 0  20 6 0  0 6.5 0  0.5 6.5 0  1 6.5 0  1.5 6.5 0  2 6.5 0  2.5 6.5 0  3 6.5 0  3.5 6.5 0  4 6.5 0  4.5 6.5 0  5 6.5 0  5.5 6.5 0  6 6.5 0  6.5 6.5 0  7 6.5 0  7.5 6.5 0  8 6.5 0  8.5 6.5 0  9 6.5 0  9.5 6.5 0  10 6.5 0  10.5 6.5 0  11 6.5 0  11.5 6.5 0  12 6.5 0  12.5 6.5 0  13 6.5 0  13.5 6.5 0  14 6.5 0  14.5 6.5 0  15 6.5 0  15.5 6.5 0  16 6.5 0  16.5 6.5 0  17 6.5 0  17.5 6.5 0  18 6.5 0  18.5 6.5 0  19 6.5 0  19.5 6.5 0  20 6.5 0  0 7 0  0.5 7 0  1 7 0  1.5 7 0  2 7 0  2.5 7 0  3 7 0  3.5 7 0  4 7 0  4.5 7 0  5 7 0  5.5 7 0  6 7 0  6.5 7 0  7 7 0  7.5 7 0  8 7 0  8.5 7 0  9 7 0  9.5 7 0  10 7 0  10.5 7 0  11 7 0  11.5 7 0  12 7 0  12.5 7 0  13 7 0  13.5 7 0  14 7 0  14.5 7 0  15 7 0  15.5 7 0  16 7 0  16.5 7 0  17 7 0  17.5 7 0  18 7 0  18.5 7 0  19 7 0  19.5 7 0  20 7 0  0 7.5 0  0.5 7.5 0  1 7.5 0  1.5 7.5 0  2 7.5 0  2.5 7.5 0  3 7.5 0  3.5 7.5 0  4 7.5 0  4.5 7.5 0  5 7.5 0  5.5 7.5 0  6 7.5 0  6.5 7.5 0  7 7.5 0  7.5 7.5 0  8 7.5 0  8.5 7.5 0  9 7.5 0  9.5 7.5 0  10 7.5 0  10.5 7.5 0  11 7.5 0  11.5 7.5 0  12 7.5 0  12.5 7.5 0  13 7.5 0  13.5 7.5 0  14 7.5 0  14.5 7.5 0  15 7.5 0  15.5 7.5 0  16 7.5 0  16.5 7.5 0  17 7.5 0  17.5 7.5 0  18 7.5 0  18.5 7.5 0  19 7.5 0  19.5 7.5 0  20 7.5 0  0 8 0  0.5 8 0  1 8 0  1.5 8 0  2 8 0  2.5 8 0  3 8 0  3.5 8 0  4 8 0  4.5 8 0  5 8 0  5.5 8 0  6 8 0  6.5 8 0  7 8 0  7.5 8 0  8 8 0  8.5 8 0  9 8 0  9.5 8 0  10 8 0  10.5 8 0  11 8 0  11.5 8 0  12 8 0  12.5 8 0  13 8 0  13.5 8 0  14 8 0  14.5 8 0  15 8 0  15.5 8 0  16 8 0  16.5 8 0  17 8 0  17.5 8 0  18 8 0  18.5 8 0  19 8 0  19.5 8 0  20 8 0  0 8.5 0  0.5 8.5 0  1 8.5 0  1.5 8.5 0  2 8.5 0  2.5 8.5 0  3 8.5 0  3.5 8.5 0  4 8.5 0  4.5 8.5 0  5 8.5 0  5.5 8.5 0  6 8.5 0  6.5 8.5 0  7 8.5 0  7.5 8.5 0  8 8.5 0  8.5 8.5 0  9 8.5 0  9.5 8.5 0  10 8.5 0  10.5 8.5 0  11 8.5 0  11.5 8.5 0  12 8.5 0  12.5 8.5 0  13 8.5 0  13.5 8.5 0  14 8.5 0  14.5 8.5 0  15 8.5 0  15.5 8.5 0  16 8.5 0  16.5 8.5 0  17 8.5 0  17.5 8.5 0  18 8.5 0  18.5 8.5 0  19 8.5 0  19.5 8.5 0  20 8.5 0  0 9 0  0.5 9 0  1 9 0  1.5 9 0  2 9 0  2.5 9 0  3 9 0  3.5 9 0  4 9 0  4.5 9 0  5 9 0  5.5 9 0  6 9 0  6.5 9 0  7 9 0  7.5 9 0  8 9 0  8.5 9 0  9 9 0  9.5 9 0  10 9 0  10.5 9 0  11 9 0  11.5 9 0  12 9 0  12.5 9 0  13 9 0  13.5 9 0  14 9 0  14.5 9 0  15 9 0  15.5 9 0  16 9 0  16.5 9 0  17 9 0  17.5 9 0  18 9 0  18.5 9 0  19 9 0  19.5 9 0  20 9 0  0 9.5 0  0.5 9.5 0  1 9.5 0  1.5 9.5 0  2 9.5 0  2.5 9.5 0  3 9.5 0  3.5 9.5 0  4 9.5 0  4.5 9.5 0  5 9.5 0  5.5 9.5 0  6 9.5 0  6.5 9.5 0  7 9.5 0  7.5 9.5 0  8 9.5 0  8.5 9.5 0  9 9.5 0  9.5 9.5 0  10 9.5 0  10.5 9.5 0  11 9.5 0  11.5 9.5 0  12 9.5 0  12.5 9.5 0  13 9.5 0  13.5 9.5 0  14 9.5 0  14.5 9.5 0  15 9.5 0  15.5 9.5 0  16 9.5 0  16.5 9.5 0  17 9.5 0  17.5 9.5 0  18 9.5 0  18.5 9.5 0  19 9.5 0  19.5 9.5 0  20 9.5 0  0 10 0  0.5 10 0  1 10 0  1.5 10 0  2 10 0  2.5 10 0  3 10 0  3.5 10 0  4 10 0  4.5 10 0  5 10 0  5.5 10 0  6 10 0  6.5 10 0  7 10 0  7.5 10 0  8 10 0  8.5 10 0  9 10 0  9.5 10 0  10 10 0  10.5 10 0  11 10 0  11.5 10 0  12 10 0  12.5 10 0  13 10 0  13.5 10 0  14 10 0  14.5 10 0  15 10 0  15.5 10 0  16 10 0  16.5 10 0  17 10 0  17.5 10 0  18 10 0  18.5 10 0  19 10 0  19.5 10 0  20 10 0  0 10.5 0  0.5 10.5 0  1 10.5 0  1.5 10.5 0  2 10.5 0  2.5 10.5 0  3 10.5 0  3.5 10.5 0  4 10.5 0  4.5 10.5 0  5 10.5 0  5.5 10.5 0  6 10.5 0  6.5 10.5 0  7 10.5 0  7.5 10.5 0  8 10.5 0  8.5 10.5 0  9 10.5 0  9.5 10.5 0  10 10.5 0  10.5 10.5 0  11 10.5 0  11.5 10.5 0  12 10.5 0  12.5 10.5 0  13 10.5 0  13.5 10.5 0  14 10.5 0  14.5 10.5 0  15 10.5 0  15.5 10.5 0  16 10.5 0  16.5 10.5 0  17 10.5 0  17.5 10.5 0  18 10.5 0  18.5 10.5 0  19 10.5 0  19.5 10.5 0  20 10.5 0  0 11 0  0.5 11 0  1 11 0  1.5 11 0  2 11 0  2.5 11 0  3 11 0  3.5 11 0  4 11 0  4.5 11 0  5 11 0  5.5 11 0  6 11 0  6.5 11 0  7 11 0  7.5 11 0  8 11 0  8.5 11 0  9 11 0  9.5 11 0  10 11 0  10.5 11 0  11 11 0  11.5 11 0  12 11 0  12.5 11 0  13 11 0  13.5 11 0  14 11 0  14.5 11 0  15 11 0  15.5 11 0  16 11 0  16.5 11 0  17 11 0  17.5 11 0  18 11 0  18.5 11 0  19 11 0  19.5 11 0  20 11 0  0 11.5 0  0.5 11.5 0  1 11.5 0  1.5 11.5 0  2 11.5 0  2.5 11.5 0  3 11.5 0  3.5 11.5 0  4 11.5 0  4.5 11.5 0  5 11.5 0  5.5 11.5 0  6 11.5 0  6.5 11.5 0  7 11.5 0  7.5 11.5 0  8 11.5 0  8.5 11.5 0  9 11.5 0  9.5 11.5 0  10 11.5 0  10.5 11.5 0  11 11.5 0  11.5 11.5 0  12 11.5 0  12.5 11.5 0  13 11.5 0  13.5 11.5 0  14 11.5 0  14.5 11.5 0  15 11.5 0  15.5 11.5 0  16 11.5 0  16.5 11.5 0  17 11.5 0  17.5 11.5 0  18 11.5 0  18.5 11.5 0  19 11.5 0  19.5 11.5 0  20 11.5 0  0 12 0  0.5 12 0  1 12 0  1.5 12 0  2 12 0  2.5 12 0  3 12 0  3.5 12 0  4 12 0  4.5 12 0  5 12 0  5.5 12 0  6 12 0  6.5 12 0  7 12 0  7.5 12 0  8 12 0  8.5 12 0  9 12 0  9.5 12 0  10 12 0  10.5 12 0  11 12 0  11.5 12 0  12 12 0  12.5 12 0  13 12 0  13.5 12 0  14 12 0  14.5 12 0  
[...]
<PointData  Vectors="f_4890-0"> 
<DataArray  type="Float64"  Name="f_4890-0"  NumberOfComponents="3" format="ascii">0.0000000000000000e+00 0.0000000000000000e+00 0.0000000000000000e+00  -6.2160197748323850e-10 0.0000000000000000e+00 0.0000000000000000e+00  -4.1964269709342849e-09 0.0000000000000000e+00 0.0000000000000000e+00  -1.3859042216881718e-08 0.0000000000000000e+00 0.0000000000000000e+00  -3.2622314184634865e-08 0.0000000000000000e+00 0.0000000000000000e+00  -6.3460418664280673e-08 0.0000000000000000e+00 0.0000000000000000e+00  -1.0929379436448343e-07 0.0000000000000000e+00 0.0000000000000000e+00  -1.7297317253827989e-07 0.0000000000000000e+00 0.0000000000000000e+00  -2.5726385511547687e-07 0.0000000000000000e+00 0.0000000000000000e+00  -3.6482911032948758e-07 0.0000000000000000e+00 0.0000000000000000e+00  -4.9821236327570235e-07 0.0000000000000000e+00 0.0000000000000000e+00  -6.5981810838568031e-07 0.0000000000000000e+00 0.0000000000000000e+00  -8.5189152090440884e-07 0.0000000000000000e+00 0.0000000000000000e+00  -1.0764967852911425e-06 0.0000000000000000e+00 0.0000000000000000e+00  -1.3354941976732444e-06 0.0000000000000000e+00 0.0000000000000000e+00  -1.6305161629252398e-06 0.0000000000000000e+00 0.0000000000000000e+00  -1.9629422794444378e-06 0.0000000000000000e+00 0.0000000000000000e+00  -2.3338737777063258e-06 0.0000000000000000e+00 0.0000000000000000e+00  -2.7441076678382086e-06 0.0000000000000000e+00 0.0000000000000000e+00  -3.1941110403985522e-06 0.0000000000000000e+00 0.0000000000000000e+00  -3.6839960530909825e-06 0.0000000000000000e+00 0.0000000000000000e+00  -4.2134962227534439e-06 0.0000000000000000e+00 0.0000000000000000e+00  -4.7819446990300971e-06 0.0000000000000000e+00 0.0000000000000000e+00  -5.3882552568330705e-06 0.0000000000000000e+00 0.0000000000000000e+00  -6.0309067236314411e-06 0.0000000000000000e+00 0.0000000000000000e+00  -6.7079314844817170e-06 0.0000000000000000e+00 0.0000000000000000e+00  -7.4169084771070068e-06 0.0000000000000000e+00 0.0000000000000000e+00  -8.1549606026013865e-06 0.0000000000000000e+00 0.0000000000000000e+00  -8.9187554413200392e-06 0.0000000000000000e+00 0.0000000000000000e+00  -9.7045059867544119e-06 0.0000000000000000e+00 0.0000000000000000e+00  -1.0507963259759528e-05 0.0000000000000000e+00 0.0000000000000000e+00  -1.1324381228748436e-05 0.0000000000000000e+00 0.0000000000000000e+00  -1.2148405412342485e-05 0.0000000000000000e+00 0.0000000000000000e+00  -1.2973756146487859e-05 0.0000000000000000e+00 0.0000000000000000e+00  -1.3792332694952814e-05 0.0000000000000000e+00 0.0000000000000000e+00  -1.4591546042789397e-05 0.0000000000000000e+00 0.0000000000000000e+00  -1.5345741326163735e-05 0.0000000000000000e+00 0.0000000000000000e+00  -1.5985435195522530e-05 0.0000000000000000e+00 0.0000000000000000e+00  -1.6235062763367853e-05 0.0000000000000000e+00 0.0000000000000000e+00  -1.3521381363385231e-05 0.0000000000000000e+00 0.0000000000000000e+00  4.0421550875104543e-05 0.0000000000000000e+00 0.0000000000000000e+00  0.0000000000000000e+00 -6.2160193806188528e-10 0.0000000000000000e+00  1.0610962782990319e-09 1.0610963067989412e-09 0.0000000000000000e+00  -1.0104625137358567e-09 5.6633739637919439e-09 0.0000000000000000e+00  -9.1567995048099207e-09 1.3266771767075929e-08 0.0000000000000000e+00  -2.6398461395817517e-08 2.3863155276137906e-08 0.0000000000000000e+00  -5.5714674302955986e-08 3.7409379466648516e-08 0.0000000000000000e+00  -1.0002787034788718e-07 5.3843817816478080e-08 0.0000000000000000e+00  -1.6219050554023081e-07 7.3089261827655554e-08 0.0000000000000000e+00  -2.4497000038610001e-07 9.5052442016402381e-08 0.0000000000000000e+00  -3.5103229193176238e-07 1.1962289603630167e-07 0.0000000000000000e+00  -4.8292410359756220e-07 1.4667171128754774e-07 0.0000000000000000e+00  -6.4305391539755316e-07 1.7605022898523606e-07 0.0000000000000000e+00  -8.3367161198313864e-07 2.0758874418149845e-07 0.0000000000000000e+00  -1.0568468190472343e-06 2.4109523430016738e-07 0.0000000000000000e+00  -1.3144459817148485e-06 2.7635417333780188e-07 0.0000000000000000e+00  -1.6081083026809748e-06 3.1312549935136745e-07 0.0000000000000000e+00  -1.9392207223048200e-06 3.5114380525963608e-07 0.0000000000000000e+00  -2.3088922034750620e-06 3.9011783895623074e-07 0.0000000000000000e+00  -2.7179276658089200e-06 4.2973039959876054e-07 0.0000000000000000e+00  -3.1668020054476123e-06 4.6963872147501553e-07 0.0000000000000000e+00  -3.6556347229902291e-06 5.0947543163384341e-07 0.0000000000000000e+00  -4.1841657549685955e-06 5.4885015119098461e-07 0.0000000000000000e+00  -4.7517331787153113e-06 5.8735180864665277e-07 0.0000000000000000e+00  -5.3572534797876651e-06 6.2455166808740875e-07 0.0000000000000000e+00  -5.9992050612543967e-06 6.6000703199088563e-07 0.0000000000000000e+00  -6.6756155536212344e-06 6.9326545485658752e-07 0.0000000000000000e+00  -7.3840532225843453e-06 7.2386908255309318e-07 0.0000000000000000e+00  -8.1216222107403426e-06 7.5135833292889250e-07 0.0000000000000000e+00  -8.8849602586486130e-06 7.7527325248762932e-07 0.0000000000000000e+00  -9.6702353415848300e-06 7.9514902062120927e-07 0.0000000000000000e+00  -1.0473133179205353e-05 8.1049765880129294e-07 0.0000000000000000e+00  -1.1288818020586950e-05 8.2075709832739841e-07 0.0000000000000000e+00  -1.2111828244864433e-05 8.2515962184790053e-07 0.0000000000000000e+00  -1.2935822753507175e-05 8.2238843578204607e-07 0.0000000000000000e+00  -1.3753004068825164e-05 8.0964151332911928e-07 0.0000000000000000e+00  -1.4552925835104344e-05 7.7998185730928401e-07 0.0000000000000000e+00  -1.5320253589202895e-05 7.1497965518972483e-07 0.0000000000000000e+00  -1.6023979920957609e-05 5.6763374933075705e-07 0.0000000000000000e+00  -1.6429840402822150e-05 2.4751533742619131e-07 0.0000000000000000e+00  -1.3075160592849677e-05 -2.5832176179549230e-07 0.0000000000000000e+00  4.1214800416120166e-05 -5.0282417753272222e-07 0.0000000000000000e+00  0.0000000000000000e+00 -4.1964269403625323e-09 0.0000000000000000e+00  5.6633739833269829e-09 -1.0104625319575251e-09 0.0000000000000000e+00  8.1717067280859543e-09 8.1717066874079895e-09 0.0000000000000000e+00  4.5997597634812558e-09 2.3388462364695504e-08 0.0000000000000000e+00  -8.0691349055284891e-09 4.4591154303303733e-08 0.0000000000000000e+00  -3.2814772783252061e-08 7.1691177976210392e-08 0.0000000000000000e+00  -7.2562470523668044e-08 1.0456794871801328e-07 0.0000000000000000e+00  -1.3016894459793283e-07 1.4306936302521020e-07 0.0000000000000000e+00  -2.0840739357904810e-07 1.8701062068689192e-07 0.0000000000000000e+00  -3.0995130841268369e-07 2.3617230903932958e-07 0.0000000000000000e+00  -4.3735695009374775e-07 2.9029808444169617e-07 0.0000000000000000e+00  -5.9304446918960402e-07 3.4909214432116467e-07 0.0000000000000000e+00  -7.7927764299172470e-07 4.1221661476499036e-07 0.0000000000000000e+00  -9.9814222808059211e-07 4.7928897038540774e-07 0.0000000000000000e+00  -1.2515229704078856e-06 5.4987960349174512e-07 0.0000000000000000e+00  -1.5410793705528424e-06 6.2350968112328364e-07 0.0000000000000000e+00  -1.8682203643933428e-06 6.9964943810146536e-07 0.0000000000000000e+00  -2.2340781630554866e-06 7.7771706779269521e-07 0.0000000000000000e+00  -2.6394815715165436e-06 8.5707839322738641e-07 0.0000000000000000e+00  -3.0849291950385311e-06 9.3704748730281553e-07 0.0000000000000000e+00  -3.5705630197592820e-06 1.0168884176077880e-06 0.0000000000000000e+00  -4.0961429294407119e-06 1.0958182526254674e-06 0.0000000000000000e+00  -4.6610227693043278e-06 1.1730114349994561e-06 0.0000000000000000e+00  -5.2641285780976953e-06 1.2476055348152115e-06 0.0000000000000000e+00  -5.9039395637625312e-06 1.3187082539664599e-06 0.0000000000000000e+00  -6.5784722345638398e-06 1.3854053174014881e-06 0.0000000000000000e+00  -7.2852677873992588e-06 1.4467684429404289e-06 0.0000000000000000e+00  -8.0213822462615868e-06 1.5018617889372412e-06 0.0000000000000000e+00  -8.7833777957180888e-06 1.5497437054564275e-06 0.0000000000000000e+00  -9.5673119485402872e-06 1.5894574296505504e-06 0.0000000000000000e+00  -1.0368718204418058e-05 1.6199975710060386e-06 0.0000000000000000e+00  -1.1182567372280159e-05 1.6402241499040819e-06 0.0000000000000000e+00  -1.2003193828752533e-05 1.6486615548338064e-06 0.0000000000000000e+00  -1.2824174288287581e-05 1.6430406704285332e-06 0.0000000000000000e+00  -1.3638195214891248e-05 1.6192688750498711e-06 0.0000000000000000e+00  -1.4437126008826585e-05 1.5691973935249812e-06 0.0000000000000000e+00  -1.5212274464160452e-05 1.4763613330309283e-06 0.0000000000000000e+00  -1.5941040578746139e-05 1.3108703942053676e-06 0.0000000000000000e+00  -1.6339985116447320e-05 1.0359534406445552e-06 0.0000000000000000e+00  -1.2593265522927602e-05 6.5450979202331902e-07 0.0000000000000000e+00  4.2113747362812121e-05 1.7799519985945906e-07 0.0000000000000000e+00  0.0000000000000000e+00 -1.3859042204955327e-08 0.0000000000000000e+00  1.3266771766753820e-08 -9.1567995316270120e-09 0.0000000000000000e+00  2.3388462333045519e-08 4.5997597447883024e-09 0.0000000000000000e+00  2.7422839081193228e-08 2.7422839115594347e-08 0.0000000000000000e+00  2.2358429979096304e-08 5.9229805605443450e-08 0.0000000000000000e+00  5.2137324532135523e-09 9.9886866930186771e-08 0.0000000000000000e+00  -2.6940514949038465e-08 1.4921446064689820e-07 0.0000000000000000e+00  -7.6967421446068470e-08 2.0698681757907870e-07 0.0000000000000000e+00  -1.4764935331651020e-07 2.7292969364794335e-07 0.0000000000000000e+00  -2.4167204733359909e-07 3.4671726963654914e-07 0.0000000000000000e+00  -3.6160738238595114e-07 4.2796857532027036e-07 0.0000000000000000e+00  -5.0989474061835211e-07 5.1624362790241196e-07 0.0000000000000000e+00  -6.8882090321265894e-07 6.1103942222605617e-07 0.0000000000000000e+00  -9.0049845156357050e-07 7.1178594327183717e-07 0.0000000000000000e+00  -1.1468426875035743e-06 8.1784236746279168e-07 0.0000000000000000e+00  -1.4295471368059850e-06 9.2849366402871376e-07 0.0000000000000000e+00  -1.7500577733532424e-06 1.0429478087411585e-06 0.0000000000000000e+00  -2.1095461629238163e-06 1.1603338661587771e-06 0.0000000000000000e+00  -2.5088818190052580e-06 1.2797011913704962e-06 0.0000000000000000e+00  -2.9486041307664602e-06 1.4000200150959220e-06 0.0000000000000000e+00  -3.4288943172262712e-06 1.5201836537221479e-06 0.0000000000000000e+00  -3.9495479087783070e-06 1.6390125523462367e-06 0.0000000000000000e+00  -4.5099483203408636e-06 1.7552602791959108e-06 0.0000000000000000e+00  -5.1090420592993862e-06 1.8676214751250447e-06 0.0000000000000000e+00  -5.7453160537759021e-06 1.9747415031260243e-06 0.0000000000000000e+00  -6.4167774101361166e-06 2.0752271988222820e-06 0.0000000000000000e+00  -7.1209355823710805e-06 2.1676574508589003e-06 0.0000000000000000e+00  -7.8547863780415784e-06 2.2505912289783434e-06 0.0000000000000000e+00  -8.6147963953097615e-06 2.3225686274798630e-06 0.0000000000000000e+00  -9.3968853238050362e-06 2.3820966877931320e-06 0.0000000000000000e+00  -1.0196402340464381e-05 2.4276045146314143e-06 0.0000000000000000e+00  -1.1008092768966493e-05 2.4573382386659985e-06 0.0000000000000000e+00  -1.1826056428536192e-05 2.4691400196224648e-06 0.0000000000000000e+00  -1.2643721999811863e-05 2.4600088606468347e-06 0.0000000000000000e+00  -1.3453929856778125e-05 2.4252752676925342e-06 0.0000000000000000e+00  -1.4249311597694079e-05 2.3571963825191370e-06 0.0000000000000000e+00  -1.5022174987626976e-05 2.2430867945866007e-06 0.0000000000000000e+00  -1.5746042420347625e-05 2.0646365874289692e-06 0.0000000000000000e+00  -1.6107568990132767e-05 1.8038454815749815e-06 0.0000000000000000e+00  -1.2217457839680766e-05 1.4606810686214153e-06 0.0000000000000000e+00  4.2545504919299459e-05 1.0623001570121420e-06 0.0000000000000000e+00  0.0000000000000000e+00 -3.2622314184452919e-08 0.0000000000000000e+00  2.3863155274842388e-08 -2.6398461408701100e-08 0.0000000000000000e+00  4.4591154261042725e-08 -8.0691348794139058e-09 0.0000000000000000e+00  5.9229805515307888e-08 2.2358430010750597e-08 0.0000000000000000e+00  6.4769904208126450e-08 6.4769904308036951e-08 0.0000000000000000e+00  5.8227648477186662e-08 1.1898792487347464e-07 0.0000000000000000e+00  3.6668550095227452e-08 1.8477644854582639e-07 0.0000000000000000e+00  -2.7789017460028380e-09 2.6183901483600520e-07 0.0000000000000000e+00  -6.2909262316802110e-08 3.4981533918079465e-07 0.0000000000000000e+00  -1.4642479979042441e-07 4.4827703436562471e-07 0.0000000000000000e+00  -2.5591872527156613e-07 5.5672271994325318e-07 0.0000000000000000e+00  -3.9385692029353514e-07 6.7457272493501650e-07 0.0000000000000000e+00  -5.6255808440316419e-07 8.0116355962926215e-07 0.0000000000000000e+00  -7.6417224324722078e-07 9.3574236842602194e-07 0.0000000000000000e+00  -1.0006575908830599e-06 1.0774615832231459e-06 0.0000000000000000e+00  -1.2737556937099503e-06 1.2253740500723549e-06 0.0000000000000000e+00  -1.5849651447286229e-06 1.3784289146717000e-06 0.0000000000000000e+00  -1.9355138306161448e-06 1.5354685970922394e-06 0.0000000000000000e+00  -2.3263300532202579e-06 1.6952271893645182e-06 0.0000000000000000e+00  -2.7580128270412375e-06 1.8563306234406239e-06 0.0000000000000000e+00  -3.2308017568109528e-06 2.0172989214905976e-06 0.0000000000000000e+00  -3.7445469660226334e-06 2.1765507958916351e-06 0.0000000000000000e+00  -4.2986795972731720e-06 2.3324107390522814e-06 0.0000000000000000e+00  -4.8921834079312111e-06 2.4831185739739904e-06 0.0000000000000000e+00  -5.5235679371018701e-06 2.6268411018522480e-06 0.0000000000000000e+00  -6.1908435892044243e-06 2.7616850130726719e-06 0.0000000000000000e+00  -6.8914987358156938e-06 2.8857093957418883e-06 0.0000000000000000e+00  -7.6224785948767803e-06 2.9969348649884336e-06 0.0000000000000000e+00  -8.3801652371303370e-06 3.0933441211130263e-06 0.0000000000000000e+00  -9.1603578525723330e-06 3.1728650213602886e-06 0.0000000000000000e+00  -9.9582530756402698e-06 3.2333210301547587e-06 0.0000000000000000e+00  -1.0768428579456334e-05 3.2723238460832192e-06 0.0000000000000000e+00  -1.1584843827494793e-05 3.2870682278944823e-06 0.0000000000000000e+00  -1.2400899176389809e-05 3.2739728595658331e-06 0.0000000000000000e+00  -1.3209649090911691e-05 3.2281128390062805e-06 0.0000000000000000e+00  -1.4004268469515941e-05 3.1424770342918769e-06 0.0000000000000000e+00  -1.4777565820542666e-05 3.0074398329368323e-06 0.0000000000000000e+00  -1.5501586868572520e-05 2.8118044800910548e-06 0.0000000000000000e+00  -1.5855366744228404e-05 2.5484565063835999e-06 0.0000000000000000e+00  -1.1940829063859815e-05 2.2282827505868763e-06 0.0000000000000000e+00  4.2822184292585984e-05 1.9006628921640048e-06 0.0000000000000000e+00  0.0000000000000000e+00 -6.3460418633942389e-08 0.0000000000000000e+00  3.7409379431431215e-08 -5.5714674276575059e-08 0.0000000000000000e+00  7.1691177931415319e-08 -3.2814772730547871e-08 0.0000000000000000e+00  9.9886866899301792e-08 5.2137324850107746e-09 0.0000000000000000e+00  1.1898792488399140e-07 5.8227648535270299e-08 0.0000000000000000e+00  1.2600866080735955e-07 1.2600866076832660e-07 0.0000000000000000e+00  1.1800891206812155e-07 2.0826743150783452e-07 0.0000000000000000e+00  9.2107348859113924e-08 3.0464075651557852e-07 0.0000000000000000e+00  4.5494730179815981e-08 4.1468696302602520e-07 0.0000000000000000e+00  -2.4551503047228824e-08 5.3788034754900984e-07 0.0000000000000000e+00  -1.2065110546740104e-07 6.7360487556866880e-07 0.0000000000000000e+00  -2.4530328943085477e-07 8.2114733342863121e-07 0.0000000000000000e+00  -4.0086726116464053e-07 9.7969013977482300e-07 0.0000000000000000e+00  -5.8954093869607101e-07 1.1483040510290988e-06 0.0000000000000000e+00  -8.1333777867974811e-07 1.3259410423682636e-06 0.0000000000000000e+00  -1.0740616933449513e-06 1.5114276845535090e-06 0.0000000000000000e+00  -1.3732800946280826e-06 1.7034593819796061e-06 0.0000000000000000e+00  -1.7122951790942738e-06 1.9005958706926649e-06 0.0000000000000000e+00  -2.0921136416448514e-06 2.1012583975808557e-06 0.0000000000000000e+00  -2.5134150998066394e-06 2.3037290128298173e-06 0.0000000000000000e+00  -2.9765196007147520e-06 2.5061523673526422e-06 0.0000000000000000e+00  -3.4813546613690929e-06 2.7065403502741133e-06 0.0000000000000000e+00  -4.0274223722820679e-06 2.9027797489830751e-06 0.0000000000000000e+00  -4.6137671384124718e-06 3.0926428983109202e-06 0.0000000000000000e+00  -5.2389446506722959e-06 3.2738009061950336e-06 0.0000000000000000e+00  -5.9009926586538706e-06 3.4438384832640396e-06 0.0000000000000000e+00  -6.5974040711127543e-06 3.6002685253163187e-06 0.0000000000000000e+00  -7.3251029100335181e-06 3.7405432693626090e-06 0.0000000000000000e+00  -8.0804238442824375e-06 3.8620568350310184e-06 0.0000000000000000e+00  -8.8590968653199468e-06 3.9621309958611458e-06 0.0000000000000000e+00  -9.6562410352986357e-06 4.0379719134273165e-06 0.0000000000000000e+00  -1.0466377076490284e-05 4.0865806381216011e-06 0.0000000000000000e+00  -1.1283481477310397e-05 4.1045968523652140e-06 0.0000000000000000e+00  -1.2101130201963965e-05 4.0880617190640311e-06 0.0000000000000000e+00  -1.2912816608825000e-05 4.0321241705417302e-06 0.0000000000000000e+00  -1.3712470350871343e-05 3.9308371930349861e-06 0.0000000000000000e+00  -1.4493758016055855e-05 3.7774925548905774e-06 0.0000000000000000e+00  -1.5228811539763894e-05 3.5665274202103755e-06 0.0000000000000000e+00  -1.5594282412043604e-05 3.2987525397271875e-06 0.0000000000000000e+00  -1.1686678723572384e-05 2.9914290660226904e-06 0.0000000000000000e+00  4.3081413988991230e-05 2.6858401831463207e-06 0.0000000000000000e+00  0.0000000000000000e+00 -1.0929379434399824e-07 0.0000000000000000e+00  5.3843817806661650e-08 -1.0002787030546308e-07 0.0000000000000000e+00  1.0456794867892414e-07 -7.2562470517247732e-08 0.0000000000000000e+00  1.4921446067388547e-07 -2.6940514943963077e-08 0.0000000000000000e+00  1.8477644858801120e-07 3.6668550110275429e-08 0.0000000000000000e+00  2.0826743153330785e-07 1.1800891205814837e-07 0.0000000000000000e+00  2.1674205735949321e-07 2.1674205734517100e-07 0.0000000000000000e+00  2.0730866313830395e-07 3.3244301394328379e-07 0.0000000000000000e+00  1.7714165395434900e-07 4.6459456826635582e-07 0.0000000000000000e+00  1.2349519017485869e-07 6.1258034732950062e-07 0.0000000000000000e+00  4.3718466133655497e-08 7.7567700071406999e-07 0.0000000000000000e+00  -6.4727274653376171e-08 9.5304567130430029e-07 0.0000000000000000e+00  -2.0424984280627896e-07 1.1437229678161587e-06 0.0000000000000000e+00  -3.7710517977151514e-07 1.3466117116633875e-06 0.0000000000000000e+00  -5.8537429081083368e-07 1.5604717749474259e-06 0.0000000000000000e+00  -8.3093795500152995e-07 1.7839113912603103e-06 0.0000000000000000e+00  -1.1154491928137205e-06 2.0153793675738204e-06 0.0000000000000000e+00  -1.4403035456398221e-06 2.2531586767395960e-06 0.0000000000000000e+00  -1.8066073059574123e-06 2.4953619432140223e-06 0.0000000000000000e+00  -2.2151439407561128e-06 2.7399293456151618e-06 0.0000000000000000e+00  -2.6663390521171730e-06 2.9846294313618918e-06 0.0000000000000000e+00  -3.1602243423126206e-06 3.2270632699087720e-06 0.0000000000000000e+00  -3.6964011626752035e-06 3.4646722176232989e-06 0.0000000000000000e+00  -4.2740043515565069e-06 3.6947493293591564e-06 0.0000000000000000e+00  -4.8916671821365517e-06 3.9144540621509218e-06 0.0000000000000000e+00  -5.5474883945806520e-06 4.1208293500287800e-06 0.0000000000000000e+00  -6.2390024881437555e-06 4.3108193167639522e-06 0.0000000000000000e+00  -6.9631548458587128e-06 4.4812847550396560e-06 0.0000000000000000e+00  -7.7162840602841147e-06 4.6290120156382242e-06 0.0000000000000000e+00  -8.4941155000495900e-06 4.7507091856398909e-06 0.0000000000000000e+00  -9.2917735475589083e-06 4.8429818570480384e-06 0.0000000000000000e+00  -1.0103826492722515e-05 4.9022808103896429e-06 0.0000000000000000e+00  -1.0924389812306853e-05 4.9248193414659702e-06 0.0000000000000000e+00  -1.1747331794980780e-05 4.9064771950199619e-06 0.0000000000000000e+00  -1.2566640081312444e-05 4.8427581