<?xml version="1.0"?>
<VTKFile type="UnstructuredGrid"  version="0.1"  >
<UnstructuredGrid>
<Piece  NumberOfPoints="1681" NumberOfCells="3200">
<Points>
<DataArray  type="Float64"  NumberOfComponents="3"  format="ascii">0 0 0  0.5 0 0  1 0 0  1.5 0 0  2 0 0  2.5 0 0  3 0 0  3.5 0 0  4 0 0  4.5 0 0  5 0 0  5.5 0 0  6 0 0  6.5 0 0  7 0 0  7.5 0 0  8 0 0  8.5 0 0  9 0 0  9.5 0 0  10 0 0  10.5 0 0  11 0 0  11.5 0 0  12 0 0  12.5 0 0  13 0 0  13.5 0 0  14 0 0  14.5 0 0  15 0 0  15.5 0 0  16 0 0  16.5 0 0  17 0 0  17.5 0 0  18 0 0  18.5 0 0  19 0 0  19.5 0 0  20 0 0  0 0.5 0  0.5 0.5 0  1 0.5 0  1.5 0.5 0  2 0.5 0  2.5 0.5 0  3 0.5 0  3.5 0.5 0  4 0.5 0  4.5 0.5 0  5 0.5 0  5.5 0.5 0  6 0.5 0  6.5 0.5 0  7 0.5 0  7.5 0.5 0  8 0.5 0  8.5 0.5 0  9 0.5 0  9.5 0.5 0  10 0.5 0  10.5 0.5 0  11 0.5 0  11.5 0.5 0  12 0.5 0  12.5 0.5 0  13 0.5 0  13.5 0.5 0  14 0.5 0  14.5 0.5 0  15 0.5 0  15.5 0.5 0  16 0.5 0  16.5 0.5 0  17 0.5 0  17.5 0.5 0  18 0.5 0  18.5 0.5 0  19 0.5 0  19.5 0.5 0  20 0.5 0  0 1 0  0.5 1 0  1 1 0  1.5 1 0  2 1 0  2.5 1 0  3 1 0  3.5 1 0  4 1 0  4.5 1 0  5 1 0  5.5 1 0  6 1 0  6.5 1 0  7 1 0  7.5 1 0  8 1 0  8.5 1 0  9 1 0  9.5 1 0  10 1 0  10.5 1 0  11 1 0  11.5 1 0  12 1 0  12.5 1 0  13 1 0  13.5 1 0  14 1 0  14.5 1 0  15 1 0  15.5 1 0  16 1 0  16.5 1 0  17 1 0  17.5 1 0  18 1 0  18.5 1 0  19 1 0  19.5 1 0  20 1 0  0 1.5 0  0.5 1.5 0  1 1.5 0  1.5 1.5 0  2 1.5 0  2.5 1.5 0  3 1.5 0  3.5 1.5 0  4 1.5 0  4.5 1.5 0  5 1.5 0  5.5 1.5 0  6 1.5 0  6.5 1.5 0  7 1.5 0  7.5 1.5 0  8 1.5 0  8.5 1.5 0  9 1.5 0  9.5 1.5 0  10 1.5 0  10.5 1.5 0  11 1.5 0  11.5 1.5 0  12 1.5 0  12.5 1.5 0  13 1.5 0  13.5 1.5 0  14 1.5 0  14.5 1.5 0  15 1.5 0  15.5 1.5 0  16 1.5 0  16.5 1.5 0  17 1.5 0  17.5 1.5 0  18 1.5 0  18.5 1.5 0  19 1.5 0  19.5 1.5 0  20 1.5 0  0 2 0  0.5 2 0  1 2 0  1.5 2 0  2 2 0  2.5 2 0  3 2 0  3.5 2 0  4 2 0  4.5 2 0  5 2 0  5.5 2 0  6 2 0  6.5 2 0  7 2 0  7.5 2 0  8 2 0  8.5 2 0  9 2 0  9.5 2 0  10 2 0  10.5 2 0  11 2 0  11.5 2 0  12 2 0  12.5 2 0  13 2 0  13.5 2 0  14 2 0  14.5 2 0  15 2 0  15.5 2 0  16 2 0  16.5 2 0  17 2 0  17.5 2 0  18 2 0  18.5 2 0  19 2 0  19.5 2 0  20 2 0  0 2.5 0  0.5 2.5 0  1 2.5 0  1.5 2.5 0  2 2.5 0  2.5 2.5 0  3 2.5 0  3.5 2.5 0  4 2.5 0  4.5 2.5 0  5 2.5 0  5.5 2.5 0  6 2.5 0  6.5 2.5 0  7 2.5 0  7.5 2.5 0  8 2.5 0  8.5 2.5 0  9 2.5 0  9.5 2.5 0  10 2.5 0  10.5 2.5 0  11 2.5 0  11.5 2.5 0  12 2.5 0  12.5 2.5 0  13 2.5 0  13.5 2.5 0  14 2.5 0  14.5 2.5 0  15 2.5 0  15.5 2.5 0  16 2.5 0  16.5 2.5 0  17 2.5 0  17.5 2.5 0  18 2.5 0  18.5 2.5 0  19 2.5 0  19.5 2.5 0  20 2.5 0  0 3 0  0.5 3 0  1 3 0  1.5 3 0  2 3 0  2.5 3 0  3 3 0  3.5 3 0  4 3 0  4.5 3 0  5 3 0  5.5 3 0  6 3 0  6.5 3 0  7 3 0  7.5 3 0  8 3 0  8.5 3 0  9 3 0  9.5 3 0  10 3 0  10.5 3 0  11 3 0  11.5 3 0  12 3 0  12.5 3 0  13 3 0  13.5 3 0  14 3 0  14.5 3 0  15 3 0  15.5 3 0  16 3 0  16.5 3 0  17 3 0  17.5 3 0  18 3 0  18.5 3 0  19 3 0  19.5 3 0  20 3 0  0 3.5 0  0.5 3.5 0  1 3.5 0  1.5 3.5 0  2 3.5 0  2.5 3.5 0  3 3.5 0  3.5 3.5 0  4 3.5 0  4.5 3.5 0  5 3.5 0  5.5 3.5 0  6 3.5 0  6.5 3.5 0  7 3.5 0  7.5 3.5 0  8 3.5 0  8.5 3.5 0  9 3.5 0  9.5 3.5 0  10 3.5 0  10.5 3.5 0  11 3.5 0  11.5 3.5 0  12 3.5 0  12.5 3.5 0  13 3.5 0  13.5 3.5 0  14 3.5 0  14.5 3.5 0  15 3.5 0  15.5 3.5 0  16 3.5 0  16.5 3.5 0  17 3.5 0  17.5 3.5 0  18 3.5 0  18.5 3.5 0  19 3.5 0  19.5 3.5 0  20 3.5 0  0 4 0  0.5 4 0  1 4 0  1.5 4 0  2 4 0  2.5 4 0  3 4 0  3.5 4 0  4 4 0  4.5 4 0  5 4 0  5.5 4 0  6 4 0  6.5 4 0  7 4 0  7.5 4 0  8 4 0  8.5 4 0  9 4 0  9.5 4 0  10 4 0  10.5 4 0  11 4 0  11.5 4 0  12 4 0  12.5 4 0  13 4 0  13.5 4 0  14 4 0  14.5 4 0  15 4 0  15.5 4 0  16 4 0  16.5 4 0  17 4 0  17.5 4 0  18 4 0  18.5 4 0  19 4 0  19.5 4 0  20 4 0  0 4.5 0  0.5 4.5 0  1 4.5 0  1.5 4.5 0  2 4.5 0  2.5 4.5 0  3 4.5 0  3.5 4.5 0  4 4.5 0  4.5 4.5 0  5 4.5 0  5.5 4.5 0  6 4.5 0  6.5 4.5 0  7 4.5 0  7.5 4.5 0  8 4.5 0  8.5 4.5 0  9 4.5 0  9.5 4.5 0  10 4.5 0  10.5 4.5 0  11 4.5 0  11.5 4.5 0  12 4.5 0  12.5 4.5 0  13 4.5 0  13.5 4.5 0  14 4.5 0  14.5 4.5 0  15 4.5 0  15.5 4.5 0  16 4.5 0  16.5 4.5 0  17 4.5 0  17.5 4.5 0  18 4.5 0  18.5 4.5 0  19 4.5 0  19.5 4.5 0  20 4.5 0  0 5 0  0.5 5 0  1 5 0  1.5 5 0  2 5 0  2.5 5 0  3 5 0  3.5 5 0  4 5 0  4.5 5 0  5 5 0  5.5 5 0  6 5 0  6.5 5 0  7 5 0  7.5 5 0  8 5 0  8.5 5 0  9 5 0  9.5 5 0  10 5 0  10.5 5 0  11 5 0  11.5 5 0  12 5 0  12.5 5 0  13 5 0  13.5 5 0  14 5 0  14.5 5 0  15 5 0  15.5 5 0  16 5 0  16.5 5 0  17 5 0  17.5 5 0  18 5 0  18.5 5 0  19 5 0  19.5 5 0  20 5 0  0 5.5 0  0.5 5.5 0  1 5.5 0  1.5 5.5 0  2 5.5 0  2.5 5.5 0  3 5.5 0  3.5 5.5 0  4 5.5 0  4.5 5.5 0  5 5.5 0  5.5 5.5 0  6 5.5 0  6.5 5.5 0  7 5.5 0  7.5 5.5 0  8 5.5 0  8.5 5.5 0  9 5.5 0  9.5 5.5 0  10 5.5 0  10.5 5.5 0  11 5.5 0  11.5 5.5 0  12 5.5 0  12.5 5.5 0  13 5.5 0  13.5 5.5 0  14 5.5 0  14.5 5.5 0  15 5.5 0  15.5 5.5 0  16 5.5 0  16.5 5.5 0  17 5.5 0  17.5 5.5 0  18 5.5 0  18.5 5.5 0  19 5.5 0  19.5 5.5 0  20 5.5 0  0 6 0  0.5 6 0  1 6 0  1.5 6 0  2 6 0  2.5 6 0  3 6 0  3.5 6 0  4 6 0  4.5 6 0  5 6 0  5.5 6 0  6 6 0  6.5 6 0  7 6 0  7.5 6 0  8 6 0  8.5 6 0  9 6 0  9.5 6 0  10 6 0  10.5 6 0  11 6 0  11.5 6 0  12 6 0  12.5 6 0  13 6 0  13.5 6 0  14 6 0  14.5 6 0  15 6 0  15.5 6 0  16 6 0  16.5 6 0  17 6 0  17.5 6 0  18 6 0  18.5 6 0  19 6 0  19.5 6 0  20 6 0  0 6.5 0  0.5 6.5 0  1 6.5 0  1.5 6.5 0  2 6.5 0  2.5 6.5 0  3 6.5 0  3.5 6.5 0  4 6.5 0  4.5 6.5 0  5 6.5 0  5.5 6.5 0  6 6.5 0  6.5 6.5 0  7 6.5 0  7.5 6.5 0  8 6.5 0  8.5 6.5 0  9 6.5 0  9.5 6.5 0  10 6.5 0  10.5 6.5 0  11 6.5 0  11.5 6.5 0  12 6.5 0  12.5 6.5 0  13 6.5 0  13.5 6.5 0  14 6.5 0  14.5 6.5 0  15 6.5 0  15.5 6.5 0  16 6.5 0  16.5 6.5 0  17 6.5 0  17.5 6.5 0  18 6.5 0  18.5 6.5 0  19 6.5 0  19.5 6.5 0  20 6.5 0  0 7 0  0.5 7 0  1 7 0  1.5 7 0  2 7 0  2.5 7 0  3 7 0  3.5 7 0  4 7 0  4.5 7 0  5 7 0  5.5 7 0  6 7 0  6.5 7 0  7 7 0  7.5 7 0  8 7 0  8.5 7 0  9 7 0  9.5 7 0  10 7 0  10.5 7 0  11 7 0  11.5 7 0  12 7 0  12.5 7 0  13 7 0  13.5 7 0  14 7 0  14.5 7 0  15 7 0  15.5 7 0  16 7 0  16.5 7 0  17 7 0  17.5 7 0  18 7 0  18.5 7 0  19 7 0  19.5 7 0  20 7 0  0 7.5 0  0.5 7.5 0  1 7.5 0  1.5 7.5 0  2 7.5 0  2.5 7.5 0  3 7.5 0  3.5 7.5 0  4 7.5 0  4.5 7.5 0  5 7.5 0  5.5 7.5 0  6 7.5 0  6.5 7.5 0  7 7.5 0  7.5 7.5 0  8 7.5 0  8.5 7.5 0  9 7.5 0  9.5 7.5 0  10 7.5 0  10.5 7.5 0  11 7.5 0  11.5 7.5 0  12 7.5 0  12.5 7.5 0  13 7.5 0  13.5 7.5 0  14 7.5 0  14.5 7.5 0  15 7.5 0  15.5 7.5 0  16 7.5 0  16.5 7.5 0  17 7.5 0  17.5 7.5 0  18 7.5 0  18.5 7.5 0  19 7.5 0  19.5 7.5 0  20 7.5 0  0 8 0  0.5 8 0  1 8 0  1.5 8 0  2 8 0  2.5 8 0  3 8 0  3.5 8 0  4 8 0  4.5 8 0  5 8 0  5.5 8 0  6 8 0  6.5 8 0  7 8 0  7.5 8 0  8 8 0  8.5 8 0  9 8 0  9.5 8 0  10 8 0  10.5 8 0  11 8 0  11.5 8 0  12 8 0  12.5 8 0  13 8 0  13.5 8 0  14 8 0  14.5 8 0  15 8 0  15.5 8 0  16 8 0  16.5 8 0  17 8 0  17.5 8 0  18 8 0  18.5 8 0  19 8 0  19.5 8 0  20 8 0  0 8.5 0  0.5 8.5 0  1 8.5 0  1.5 8.5 0  2 8.5 0  2.5 8.5 0  3 8.5 0  3.5 8.5 0  4 8.5 0  4.5 8.5 0  5 8.5 0  5.5 8.5 0  6 8.5 0  6.5 8.5 0  7 8.5 0  7.5 8.5 0  8 8.5 0  8.5 8.5 0  9 8.5 0  9.5 8.5 0  10 8.5 0  10.5 8.5 0  11 8.5 0  11.5 8.5 0  12 8.5 0  12.5 8.5 0  13 8.5 0  13.5 8.5 0  14 8.5 0  14.5 8.5 0  15 8.5 0  15.5 8.5 0  16 8.5 0  16.5 8.5 0  17 8.5 0  17.5 8.5 0  18 8.5 0  18.5 8.5 0  19 8.5 0  19.5 8.5 0  20 8.5 0  0 9 0  0.5 9 0  1 9 0  1.5 9 0  2 9 0  2.5 9 0  3 9 0  3.5 9 0  4 9 0  4.5 9 0  5 9 0  5.5 9 0  6 9 0  6.5 9 0  7 9 0  7.5 9 0  8 9 0  8.5 9 0  9 9 0  9.5 9 0  10 9 0  10.5 9 0  11 9 0  11.5 9 0  12 9 0  12.5 9 0  13 9 0  13.5 9 0  14 9 0  14.5 9 0  15 9 0  15.5 9 0  16 9 0  16.5 9 0  17 9 0  17.5 9 0  18 9 0  18.5 9 0  19 9 0  19.5 9 0  20 9 0  0 9.5 0  0.5 9.5 0  1 9.5 0  1.5 9.5 0  2 9.5 0  2.5 9.5 0  3 9.5 0  3.5 9.5 0  4 9.5 0  4.5 9.5 0  5 9.5 0  5.5 9.5 0  6 9.5 0  6.5 9.5 0  7 9.5 0  7.5 9.5 0  8 9.5 0  8.5 9.5 0  9 9.5 0  9.5 9.5 0  10 9.5 0  10.5 9.5 0  11 9.5 0  11.5 9.5 0  12 9.5 0  12.5 9.5 0  13 9.5 0  13.5 9.5 0  14 9.5 0  14.5 9.5 0  15 9.5 0  15.5 9.5 0  16 9.5 0  16.5 9.5 0  17 9.5 0  17.5 9.5 0  18 9.5 0  18.5 9.5 0  19 9.5 0  19.5 9.5 0  20 9.5 0  0 10 0  0.5 10 0  1 10 0  1.5 10 0  2 10 0  2.5 10 0  3 10 0  3.5 10 0  4 10 0  4.5 10 0  5 10 0  5.5 10 0  6 10 0  6.5 10 0  7 10 0  7.5 10 0  8 10 0  8.5 10 0  9 10 0  9.5 10 0  10 10 0  10.5 10 0  11 10 0  11.5 10 0  12 10 0  12.5 10 0  13 10 0  13.5 10 0  14 10 0  14.5 10 0  15 10 0  15.5 10 0  16 10 0  16.5 10 0  17 10 0  17.5 10 0  18 10 0  18.5 10 0  19 10 0  19.5 10 0  20 10 0  0 10.5 0  0.5 10.5 0  1 10.5 0  1.5 10.5 0  2 10.5 0  2.5 10.5 0  3 10.5 0  3.5 10.5 0  4 10.5 0  4.5 10.5 0  5 10.5 0  5.5 10.5 0  6 10.5 0  6.5 10.5 0  7 10.5 0  7.5 10.5 0  8 10.5 0  8.5 10.5 0  9 10.5 0  9.5 10.5 0  10 10.5 0  10.5 10.5 0  11 10.5 0  11.5 10.5 0  12 10.5 0  12.5 10.5 0  13 10.5 0  13.5 10.5 0  14 10.5 0  14.5 10.5 0  15 10.5 0  15.5 10.5 0  16 10.5 0  16.5 10.5 0  17 10.5 0  17.5 10.5 0  18 10.5 0  18.5 10.5 0  19 10.5 0  19.5 10.5 0  20 10.5 0  0 11 0  0.5 11 0  1 11 0  1.5 11 0  2 11 0  2.5 11 0  3 11 0  3.5 11 0  4 11 0  4.5 11 0  5 11 0  5.5 11 0  6 11 0  6.5 11 0  7 11 0  7.5 11 0  8 11 0  8.5 11 0  9 11 0  9.5 11 0  10 11 0  10.5 11 0  11 11 0  11.5 11 0  12 11 0  12.5 11 0  13 11 0  13.5 11 0  14 11 0  14.5 11 0  15 11 0  15.5 11 0  16 11 0  16.5 11 0  17 11 0  17.5 11 0  18 11 0  18.5 11 0  19 11 0  19.5 11 0  20 11 0  0 11.5 0  0.5 11.5 0  1 11.5 0  1.5 11.5 0  2 11.5 0  2.5 11.5 0  3 11.5 0  3.5 11.5 0  4 11.5 0  4.5 11.5 0  5 11.5 0  5.5 11.5 0  6 11.5 0  6.5 11.5 0  7 11.5 0  7.5 11.5 0  8 11.5 0  8.5 11.5 0  9 11.5 0  9.5 11.5 0  10 11.5 0  10.5 11.5 0  11 11.5 0  11.5 11.5 0  12 11.5 0  12.5 11.5 0  13 11.5 0  13.5 11.5 0  14 11.5 0  14.5 11.5 0  15 11.5 0  15.5 11.5 0  16 11.5 0  16.5 11.5 0  17 11.5 0  17.5 11.5 0  18 11.5 0  18.5 11.5 0  19 11.5 0  19.5 11.5 0  20 11.5 0  0 12 0  0.5 12 0  1 12 0  1.5 12 0  2 12 0  2.5 12 0  3 12 0  3.5 12 0  4 12 0  4.5 12 0  5 12 0  5.5 12 0  6 12 0  6.5 12 0  7 12 0  7.5 12 0  8 12 0  8.5 12 0  9 12 0  9.5 12 0  10 12 0  10.5 12 0  11 12 0  11.5 12 0  12 12 0  12.5 12 0  13 12 0  13.5 12 0  14 12 0  14.5 12 0  
[...]
<PointData  Vectors="f_826-0"> 
<DataArray  type="Float64"  Name="f_826-0"  NumberOfComponents="3" format="ascii">0.0000000000000000e+00 0.0000000000000000e+00 0.0000000000000000e+00  4.2188885177997499e-04 0.0000000000000000e+00 0.0000000000000000e+00  8.3510816429688793e-04 0.0000000000000000e+00 0.0000000000000000e+00  1.2171185659465389e-03 0.0000000000000000e+00 0.0000000000000000e+00  1.5527071356316749e-03 0.0000000000000000e+00 0.0000000000000000e+00  1.8284371542045337e-03 0.0000000000000000e+00 0.0000000000000000e+00  2.0326582039659111e-03 0.0000000000000000e+00 0.0000000000000000e+00  2.1559656860471025e-03 0.0000000000000000e+00 0.0000000000000000e+00  2.1917092704874029e-03 0.0000000000000000e+00 0.0000000000000000e+00  2.1365302076996120e-03 0.0000000000000000e+00 0.0000000000000000e+00  1.9909335566495536e-03 0.0000000000000000e+00 0.0000000000000000e+00  1.7599018695781286e-03 0.0000000000000000e+00 0.0000000000000000e+00  1.4535568593787838e-03 0.0000000000000000e+00 0.0000000000000000e+00  1.0878761496518300e-03 0.0000000000000000e+00 0.0000000000000000e+00  6.8547315754135380e-04 0.0000000000000000e+00 0.0000000000000000e+00  2.7644945655803645e-04 0.0000000000000000e+00 0.0000000000000000e+00  -1.0066931095882342e-04 0.0000000000000000e+00 0.0000000000000000e+00  -3.9790062730683974e-04 0.0000000000000000e+00 0.0000000000000000e+00  -5.5665905717604660e-04 0.0000000000000000e+00 0.0000000000000000e+00  -5.0647668475499084e-04 0.0000000000000000e+00 0.0000000000000000e+00  -1.6356455547417078e-04 0.0000000000000000e+00 0.0000000000000000e+00  5.7081719815503550e-04 0.0000000000000000e+00 0.0000000000000000e+00  1.8122219358026707e-03 0.0000000000000000e+00 0.0000000000000000e+00  3.6951652704467169e-03 0.0000000000000000e+00 0.0000000000000000e+00  6.3756297304386764e-03 0.0000000000000000e+00 0.0000000000000000e+00  1.0034017083314983e-02 0.0000000000000000e+00 0.0000000000000000e+00  1.4878670344124450e-02 0.0000000000000000e+00 0.0000000000000000e+00  2.1150129596626592e-02 0.0000000000000000e+00 0.0000000000000000e+00  2.9126345234654540e-02 0.0000000000000000e+00 0.0000000000000000e+00  3.9129157693790058e-02 0.0000000000000000e+00 0.0000000000000000e+00  5.1532477925592783e-02 0.0000000000000000e+00 0.0000000000000000e+00  6.6772790258186540e-02 0.0000000000000000e+00 0.0000000000000000e+00  8.5362886857380665e-02 0.0000000000000000e+00 0.0000000000000000e+00  1.0791019713117640e-01 0.0000000000000000e+00 0.0000000000000000e+00  1.3514181712233567e-01 0.0000000000000000e+00 0.0000000000000000e+00  1.6793960596197391e-01 0.0000000000000000e+00 0.0000000000000000e+00  2.0739098189153043e-01 0.0000000000000000e+00 0.0000000000000000e+00  2.5486545246850589e-01 0.0000000000000000e+00 0.0000000000000000e+00  3.1213674785429463e-01 0.0000000000000000e+00 0.0000000000000000e+00  3.8159904777167480e-01 0.0000000000000000e+00 0.0000000000000000e+00  4.6673691569928993e-01 0.0000000000000000e+00 0.0000000000000000e+00  0.0000000000000000e+00 4.2188885177809709e-04 0.0000000000000000e+00  4.4245290748342784e-04 4.4245290748435987e-04 0.0000000000000000e+00  8.6837718149431777e-04 4.9010399708414765e-04 0.0000000000000000e+00  1.2641129767739054e-03 5.6497850879018961e-04 0.0000000000000000e+00  1.6140554055373718e-03 6.6813863251513270e-04 0.0000000000000000e+00  1.9043734768823411e-03 7.9976408965199222e-04 0.0000000000000000e+00  2.1232552275908929e-03 9.5953736390143145e-04 0.0000000000000000e+00  2.2612263513466179e-03 1.1468783101463266e-03 0.0000000000000000e+00  2.3115976634003944e-03 1.3610269613524052e-03 0.0000000000000000e+00  2.2709805775111024e-03 1.6010660624349480e-03 0.0000000000000000e+00  2.1398510995548100e-03 1.8659226024799048e-03 0.0000000000000000e+00  1.9231600028091096e-03 2.1543618703964082e-03 0.0000000000000000e+00  1.6309927820881425e-03 2.4649785425056698e-03 0.0000000000000000e+00  1.2792854710821945e-03 2.7961864119603300e-03 0.0000000000000000e+00  8.9060399061959082e-04 3.1462074465886543e-03 0.0000000000000000e+00  4.9499622106284385e-04 3.5130605619958957e-03 0.0000000000000000e+00  1.3092780636732518e-04 3.8945504004118973e-03 0.0000000000000000e+00  -1.5368498615554705e-04 4.2882563801605799e-03 0.0000000000000000e+00  -3.0032900801632058e-04 4.6915222809168072e-03 0.0000000000000000e+00  -2.3861427568989453e-04 5.1014466390332022e-03 0.0000000000000000e+00  1.1516517609896827e-04 5.5148742375693560e-03 0.0000000000000000e+00  8.5966198460179718e-04 5.9283889826797984e-03 0.0000000000000000e+00  2.1103391216564901e-03 6.3383084580493692e-03 0.0000000000000000e+00  4.0016200573912176e-03 6.7406804374614713e-03 0.0000000000000000e+00  6.6893952150565549e-03 7.1312816067630284e-03 0.0000000000000000e+00  1.0353976577793682e-02 7.5056186912293935e-03 0.0000000000000000e+00  1.5203622618198631e-02 7.8589320895938002e-03 0.0000000000000000e+00  2.1478797908607232e-02 8.1862019613900341e-03 0.0000000000000000e+00  2.9457391387973503e-02 8.4821564688957029e-03 0.0000000000000000e+00  3.9461202963697754e-02 8.7412814922484573e-03 0.0000000000000000e+00  5.1864133712235125e-02 8.9578305405860446e-03 0.0000000000000000e+00  6.7102702988411714e-02 9.1258326482063466e-03 0.0000000000000000e+00  8.5689804287959762e-02 9.2390945305080782e-03 0.0000000000000000e+00  1.0823306689215088e-01 9.2911907042087689e-03 0.0000000000000000e+00  1.3545993152670174e-01 9.2754307835460504e-03 0.0000000000000000e+00  1.6825279987900460e-01 9.1847861305176508e-03 0.0000000000000000e+00  2.0769982168294296e-01 9.0117543211824160e-03 0.0000000000000000e+00  2.5517095327163924e-01 8.7481843485178509e-03 0.0000000000000000e+00  3.1243680065660351e-01 8.3853792191498650e-03 0.0000000000000000e+00  3.8186284940773663e-01 7.9158940022665287e-03 0.0000000000000000e+00  4.6672737499691608e-01 7.3396400838858606e-03 0.0000000000000000e+00  0.0000000000000000e+00 8.3510816429997509e-04 0.0000000000000000e+00  4.9010399708197155e-04 8.6837718149514469e-04 0.0000000000000000e+00  9.6069828822247655e-04 9.6069828822760081e-04 0.0000000000000000e+00  1.4002613094809388e-03 1.1105509201757998e-03 0.0000000000000000e+00  1.7940255026103222e-03 1.3176788784678135e-03 0.0000000000000000e+00  2.1283010377962305e-03 1.5816595126740011e-03 0.0000000000000000e+00  2.3912236522779600e-03 1.9017360340867785e-03 0.0000000000000000e+00  2.5732396835792533e-03 2.2767924119962831e-03 0.0000000000000000e+00  2.6675829872757186e-03 2.7053704405969443e-03 0.0000000000000000e+00  2.6707889531278448e-03 3.1856843390180201e-03 0.0000000000000000e+00  2.5832528347751490e-03 3.7156232506514127e-03 0.0000000000000000e+00  2.4098351892089774e-03 4.2927436359648033e-03 0.0000000000000000e+00  2.1605184950992543e-03 4.9142550596565889e-03 0.0000000000000000e+00  1.8511207168253880e-03 5.5770019960671765e-03 0.0000000000000000e+00  1.5040731713069381e-03 6.2774433521467906e-03 0.0000000000000000e+00  1.1492716977434111e-03 7.0116308289982134e-03 0.0000000000000000e+00  8.2501203889337449e-04 7.7751869399612702e-03 0.0000000000000000e+00  5.7902271942393763e-04 8.5632833630481311e-03 0.0000000000000000e+00  4.6961176107149059e-04 9.3706202507435263e-03 0.0000000000000000e+00  5.6694755242092784e-04 1.0191407108271981e-02 0.0000000000000000e+00  9.5449940337279744e-04 1.1019345856266564e-02 0.0000000000000000e+00  1.7306701784378892e-03 1.1847616703195243e-02 0.0000000000000000e+00  3.0106624883756033e-03 1.2668867454886105e-02 0.0000000000000000e+00  4.9286320268846842e-03 1.3475206875399827e-02 0.0000000000000000e+00  7.6401979080103211e-03 1.4258202675039038e-02 0.0000000000000000e+00  1.1325401940891081e-02 1.5008884624638185e-02 0.0000000000000000e+00  1.6192239102609321e-02 1.5717753162888159e-02 0.0000000000000000e+00  2.2480923677392128e-02 1.6374793650087652e-02 0.0000000000000000e+00  3.0469115175349823e-02 1.6969496090987420e-02 0.0000000000000000e+00  4.0478413873373309e-02 1.7490879648714076e-02 0.0000000000000000e+00  5.2882561397981892e-02 1.7927520521152613e-02 0.0000000000000000e+00  6.8117969656298322e-02 1.8267580632733208e-02 0.0000000000000000e+00  8.6697489297286601e-02 1.8498832936644304e-02 0.0000000000000000e+00  1.0922878194718061e-01 1.8608676760956622e-02 0.0000000000000000e+00  1.3643939553843260e-01 1.8584133757898774e-02 0.0000000000000000e+00  1.6921187716227720e-01 1.8411813333096105e-02 0.0000000000000000e+00  2.0863441973301125e-01 1.8077840345087824e-02 0.0000000000000000e+00  2.5607650700540024e-01 1.7567740283831384e-02 0.0000000000000000e+00  3.1330668137958845e-01 1.6866129243856647e-02 0.0000000000000000e+00  3.8268488568143566e-01 1.5954772406495562e-02 0.0000000000000000e+00  4.6749354851424707e-01 1.4800497708083227e-02 0.0000000000000000e+00  0.0000000000000000e+00 1.2171185659487309e-03 0.0000000000000000e+00  5.6497850878712262e-04 1.2641129767781737e-03 0.0000000000000000e+00  1.1105509201748010e-03 1.4002613094838364e-03 0.0000000000000000e+00  1.6240675088351282e-03 1.6240675088306131e-03 0.0000000000000000e+00  2.0914504322422350e-03 1.9345746126992992e-03 0.0000000000000000e+00  2.4992350224832135e-03 2.3307492167209741e-03 0.0000000000000000e+00  2.8356114643103094e-03 2.8112149194429799e-03 0.0000000000000000e+00  3.0910008188312558e-03 3.3741895665457987e-03 0.0000000000000000e+00  3.2585694287295608e-03 4.0174585497516737e-03 0.0000000000000000e+00  3.3347577854965951e-03 4.7383550461839183e-03 0.0000000000000000e+00  3.3198431329322774e-03 5.5337405182080456e-03 0.0000000000000000e+00  3.2185448375021820e-03 6.3999826376123373e-03 0.0000000000000000e+00  3.0406794465922303e-03 7.3329297794240906e-03 0.0000000000000000e+00  2.8018724261465048e-03 8.3278823664328459e-03 0.0000000000000000e+00  2.5243344441710598e-03 9.3795618384823094e-03 0.0000000000000000e+00  2.2377114110380056e-03 1.0482078170052426e-02 0.0000000000000000e+00  1.9800192811076692e-03 1.1628896875893668e-02 0.0000000000000000e+00  1.7986769593486378e-03 1.2812806432412113e-02 0.0000000000000000e+00  1.7516537037575689e-03 1.4025887037989869e-02 0.0000000000000000e+00  1.9087513953032435e-03 1.5259481645298414e-02 0.0000000000000000e+00  2.3530472652704961e-03 1.6504170216836346e-02 0.0000000000000000e+00  3.1825295387544511e-03 1.7749748173663465e-02 0.0000000000000000e+00  4.5119675418812131e-03 1.8985210016259829e-02 0.0000000000000000e+00  6.4750699295170328e-03 2.0198739085270569e-02 0.0000000000000000e+00  9.2270009581995830e-03 2.1377704385941595e-02 0.0000000000000000e+00  1.2947346807099257e-02 2.2508665306695541e-02 0.0000000000000000e+00  1.7843654266999808e-02 2.3577384896677978e-02 0.0000000000000000e+00  2.4155706312135639e-02 2.4568852097028412e-02 0.0000000000000000e+00  3.2160758690328126e-02 2.5467312898289116e-02 0.0000000000000000e+00  4.2180047344971182e-02 2.6256309751750626e-02 0.0000000000000000e+00  5.4587001944409554e-02 2.6918727587928289e-02 0.0000000000000000e+00  6.9817788414124310e-02 2.7436843324245151e-02 0.0000000000000000e+00  8.8385090647417328e-02 2.7792373505962496e-02 0.0000000000000000e+00  1.1089649339498070e-01 2.7966511226125392e-02 0.0000000000000000e+00  1.3807956111208289e-01 2.7939937518350472e-02 0.0000000000000000e+00  1.7081693882664342e-01 2.7692779869452427e-02 0.0000000000000000e+00  2.1019695559630555e-01 2.7204454507016348e-02 0.0000000000000000e+00  2.5758915224590001e-01 2.6453204085891240e-02 0.0000000000000000e+00  3.1476168785684822e-01 2.5414712957811267e-02 0.0000000000000000e+00  3.8407255998190254e-01 2.4057945482900051e-02 0.0000000000000000e+00  4.6879839588884586e-01 2.2334022512560597e-02 0.0000000000000000e+00  0.0000000000000000e+00 1.5527071356423159e-03 0.0000000000000000e+00  6.6813863251197919e-04 1.6140554055413833e-03 0.0000000000000000e+00  1.3176788784668029e-03 1.7940255026025337e-03 0.0000000000000000e+00  1.9345746127015665e-03 2.0914504322370304e-03 0.0000000000000000e+00  2.5049801511397075e-03 2.5049801511379333e-03 0.0000000000000000e+00  3.0156040342838456e-03 3.0330789543889366e-03 0.0000000000000000e+00  3.4546872925868741e-03 3.6737997754705807e-03 0.0000000000000000e+00  3.8126293744421892e-03 4.4247012079109607e-03 0.0000000000000000e+00  4.0825261792361489e-03 5.2828037912879917e-03 0.0000000000000000e+00  4.2607075763833558e-03 6.2445550572266797e-03 0.0000000000000000e+00  4.3473028763139259e-03 7.3057947420378392e-03 0.0000000000000000e+00  4.3468464501234963e-03 8.4617179796823479e-03 0.0000000000000000e+00  4.2689317970884804e-03 9.7068360029226256e-03 0.0000000000000000e+00  4.1289218265488500e-03 1.1034934470506762e-02 0.0000000000000000e+00  3.9487237024851702e-03 1.2439029879786862e-02 0.0000000000000000e+00  3.7576377741624354e-03 1.3911324770419687e-02 0.0000000000000000e+00  3.5932918090214325e-03 1.5443162601098121e-02 0.0000000000000000e+00  3.5026740256210529e-03 1.7024983308687180e-02 0.0000000000000000e+00  3.5432814406408681e-03 1.8646280654132884e-02 0.0000000000000000e+00  3.7844040097217402e-03 2.0295562535821567e-02 0.0000000000000000e+00  4.3085702533168582e-03 2.1960315513031486e-02 0.0000000000000000e+00  5.2131869239069083e-03 2.3626974829363729e-02 0.0000000000000000e+00  6.6124143570943147e-03 2.5280901252408245e-02 0.0000000000000000e+00  8.6393312534068078e-03 2.6906366042232621e-02 0.0000000000000000e+00  1.1448458897391501e-02 2.8486545312501017e-02 0.0000000000000000e+00  1.5218736884855000e-02 3.0003524934128532e-02 0.0000000000000000e+00  2.0157072724163467e-02 3.1438316922538928e-02 0.0000000000000000e+00  2.6502629837647351e-02 3.2770887901552075e-02 0.0000000000000000e+00  3.4532078056243171e-02 3.3980199683888795e-02 0.0000000000000000e+00  4.4566116293240976e-02 3.5044261146774537e-02 0.0000000000000000e+00  5.6977702404303797e-02 3.5940189242291226e-02 0.0000000000000000e+00  7.2202612620174231e-02 3.6644274873917561e-02 0.0000000000000000e+00  9.0753239789628320e-02 3.7132045924512740e-02 0.0000000000000000e+00  1.1323699068447524e-01 3.7378313681530134e-02 0.0000000000000000e+00  1.4038137359153582e-01 3.7357177132231044e-02 0.0000000000000000e+00  1.7306909345064675e-01 3.7041933713627143e-02 0.0000000000000000e+00  2.1238860796508174e-01 3.6404783159657741e-02 0.0000000000000000e+00  2.5970947711922493e-01 3.5416062687242560e-02 0.0000000000000000e+00  3.1679921004312256e-01 3.4042437248001968e-02 0.0000000000000000e+00  3.8601316073075670e-01 3.2243015019706257e-02 0.0000000000000000e+00  4.7062200692454248e-01 2.9962520035304172e-02 0.0000000000000000e+00  0.0000000000000000e+00 1.8284371542197540e-03 0.0000000000000000e+00  7.9976408965025587e-04 1.9043734768808751e-03 0.0000000000000000e+00  1.5816595126743381e-03 2.1283010377883453e-03 0.0000000000000000e+00  2.3307492167210487e-03 2.4992350224787535e-03 0.0000000000000000e+00  3.0330789543876781e-03 3.0156040342791007e-03 0.0000000000000000e+00  3.6754498380369089e-03 3.6754498380352947e-03 0.0000000000000000e+00  4.2461338066617383e-03 4.4763045792939275e-03 0.0000000000000000e+00  4.7354978305386456e-03 5.4151045980976066e-03 0.0000000000000000e+00  5.1365530299680440e-03 6.4881355761123721e-03 0.0000000000000000e+00  5.4454971209037225e-03 7.6909861634200669e-03 0.0000000000000000e+00  5.6622805352359905e-03 9.0185015709169682e-03 0.0000000000000000e+00  5.7912107539151549e-03 1.0464734586644993e-02 0.0000000000000000e+00  5.8416043829869809e-03 1.2022893549336685e-02 0.0000000000000000e+00  5.8284953419968913e-03 1.3685287578309639e-02 0.0000000000000000e+00  5.7734078563745541e-03 1.5443269695948147e-02 0.0000000000000000e+00  5.7052040159176658e-03 1.7287178685378057e-02 0.0000000000000000e+00  5.6610173079069976e-03 1.9206280691262123e-02 0.0000000000000000e+00  5.6872857900454495e-03 2.1188711719346724e-02 0.0000000000000000e+00  5.8409015702100145e-03 2.3221422324003621e-02 0.0000000000000000e+00  6.1904972159040712e-03 2.5290125890506079e-02 0.0000000000000000e+00  6.8178949213162773e-03 2.7379252019791439e-02 0.0000000000000000e+00  7.8197511189773989e-03 2.9471906600689643e-02 0.0000000000000000e+00  9.3094383028819935e-03 3.1549840203751976e-02 0.0000000000000000e+00  1.1419217923701173e-02 3.3593426437259995e-02 0.0000000000000000e+00  1.4302774461434705e-02 3.5581651854777602e-02 0.0000000000000000e+00  1.8138202820360372e-02 3.7492118867645578e-02 0.0000000000000000e+00  2.3131571448349271e-02 3.9301062858220576e-02 0.0000000000000000e+00  2.9521225685508690e-02 4.0983384252379858e-02 0.0000000000000000e+00  3.7583055327329314e-02 4.2512695603786448e-02 0.0000000000000000e+00  4.7637035848826031e-02 4.3861382625443410e-02 0.0000000000000000e+00  6.0055477851275782e-02 4.5000676333421065e-02 0.0000000000000000e+00  7.5273606324991887e-02 4.5900730612940838e-02 0.0000000000000000e+00  9.3803377514572739e-02 4.6530694742945293e-02 0.0000000000000000e+00  1.1625189075087858e-01 4.6858761996760478e-02 0.0000000000000000e+00  1.4334648005655765e-01 4.6852159683435306e-02 0.0000000000000000e+00  1.7596978724755255e-01 4.6477015180865264e-02 0.0000000000000000e+00  2.1521023205869638e-01 4.5697972181144353e-02 0.0000000000000000e+00  2.6243712995699459e-01 4.4477321682701430e-02 0.0000000000000000e+00  3.1941705068178017e-01 4.2773251014120391e-02 0.0000000000000000e+00  3.8850313250287782e-01 4.0536690857311576e-02 0.0000000000000000e+00  4.7296363207754705e-01 3.7706380100362875e-02 0.0000000000000000e+00  0.0000000000000000e+00 2.0326582039757236e-03 0.0000000000000000e+00  9.5953736390253625e-04 2.1232552275875249e-03 0.0000000000000000e+00  1.9017360340839440e-03 2.3912236522776512e-03 0.0000000000000000e+00  2.8112149194335577e-03 2.8356114643067068e-03 0.0000000000000000e+00  3.6737997754640881e-03 3.4546872925823018e-03 0.0000000000000000e+00  4.4763045792917408e-03 4.2461338066611762e-03 0.0000000000000000e+00  5.2070077803229890e-03 5.2070077803221823e-03 0.0000000000000000e+00  5.8562316588749753e-03 6.3336641174513118e-03 0.0000000000000000e+00  6.4168884077697805e-03 7.6216940428629528e-03 0.0000000000000000e+00  6.8850227707670207e-03 9.0658687420391692e-03 0.0000000000000000e+00  7.2603767010384502e-03 1.0660082096977096e-02 0.0000000000000000e+00  7.5469910344274048e-03 1.2397290107796069e-02 0.0000000000000000e+00  7.7538544681780668e-03 1.4269446514080469e-02 0.0000000000000000e+00  7.8956087374326429e-03 1.6267434972821918e-02 0.0000000000000000e+00  7.9933190183999765e-03 1.8380998558430898e-02 0.0000000000000000e+00  8.0753195585495617e-03 2.0598667594908193e-02 0.0000000000000000e+00  8.1781461352592993e-03 2.2907687014841211e-02 0.0000000000000000e+00  8.3475691821743251e-03 2.5293944602378615e-02 0.0000000000000000e+00  8.6397444173775644e-03 2.7741901628416762e-02 0.0000000000000000e+00  9.1225017608134885e-03 3.0234527526477345e-02 0.0000000000000000e+00  9.8767985309037593e-03 3.2753240383131564e-02 0.0000000000000000e+00  1.0998369766119419e-02 3.5277855118049747e-02 0.0000000000000000e+00  1.2599617589201792e-02 3.7786541296931063e-02 0.0000000000000000e+00  1.4811793613127474e-02 4.0255792538869239e-02 0.0000000000000000e+00  1.7787544610635430e-02 4.2660409427566791e-02 0.0000000000000000e+00  2.1703913673948243e-02 4.4973497681071964e-02 0.0000000000000000e+00  2.6765919294479183e-02 4.7166483032158278e-02 0.0000000000000000e+00  3.3210876811867261e-02 4.9209143748373305e-02 0.0000000000000000e+00  4.1313686035500001e-02 5.1069660868569886e-02 0.0000000000000000e+00  5.1393394108511931e-02 5.2714684872444802e-02 0.0000000000000000e+00  6.3821467491347386e-02 5.4109415334346281e-02 0.0000000000000000e+00  7.9032393451365646e-02 5.5217686627988205e-02 0.0000000000000000e+00  9.7537516671344734e-02 5.6002047019573946e-02 0.0000000000000000e+00  1.1994346422692387e-01 5.6423808810161215e-02 0.0000000000000000e+00  1.4697723561684722e-01 5.6443030475291270e-02 0.0000000000000000e+00  1.7952124362443750e-01 5.6018362758261442e-02 0.0000000000000000e+00  2.1866369340659397e-01 5.5106641875996898e-02 0.0000000000000000e+00  2.6577351680872074e-01 5.3662036992824159e-02 0.0000000000000000e+00