<?xml version="1.0"?>
<VTKFile type="UnstructuredGrid"  version="0.1"  >
<UnstructuredGrid>
<Piece  NumberOfPoints="1681" NumberOfCells="3200">
<Points>
<DataArray  type="Float64"  NumberOfComponents="3"  format="ascii">0 0 0  0.5 0 0  1 0 0  1.5 0 0  2 0 0  2.5 0 0  3 0 0  3.5 0 0  4 0 0  4.5 0 0  5 0 0  5.5 0 0  6 0 0  6.5 0 0  7 0 0  7.5 0 0  8 0 0  8.5 0 0  9 0 0  9.5 0 0  10 0 0  10.5 0 0  11 0 0  11.5 0 0  12 0 0  12.5 0 0  13 0 0  13.5 0 0  14 0 0  14.5 0 0  15 0 0  15.5 0 0  16 0 0  16.5 0 0  17 0 0  17.5 0 0  18 0 0  18.5 0 0  19 0 0  19.5 0 0  20 0 0  0 0.5 0  0.5 0.5 0  1 0.5 0  1.5 0.5 0  2 0.5 0  2.5 0.5 0  3 0.5 0  3.5 0.5 0  4 0.5 0  4.5 0.5 0  5 0.5 0  5.5 0.5 0  6 0.5 0  6.5 0.5 0  7 0.5 0  7.5 0.5 0  8 0.5 0  8.5 0.5 0  9 0.5 0  9.5 0.5 0  10 0.5 0  10.5 0.5 0  11 0.5 0  11.5 0.5 0  12 0.5 0  12.5 0.5 0  13 0.5 0  13.5 0.5 0  14 0.5 0  14.5 0.5 0  15 0.5 0  15.5 0.5 0  16 0.5 0  16.5 0.5 0  17 0.5 0  17.5 0.5 0  18 0.5 0  18.5 0.5 0  19 0.5 0  19.5 0.5 0  20 0.5 0  0 1 0  0.5 1 0  1 1 0  1.5 1 0  2 1 0  2.5 1 0  3 1 0  3.5 1 0  4 1 0  4.5 1 0  5 1 0  5.5 1 0  6 1 0  6.5 1 0  7 1 0  7.5 1 0  8 1 0  8.5 1 0  9 1 0  9.5 1 0  10 1 0  10.5 1 0  11 1 0  11.5 1 0  12 1 0  12.5 1 0  13 1 0  13.5 1 0  14 1 0  14.5 1 0  15 1 0  15.5 1 0  16 1 0  16.5 1 0  17 1 0  17.5 1 0  18 1 0  18.5 1 0  19 1 0  19.5 1 0  20 1 0  0 1.5 0  0.5 1.5 0  1 1.5 0  1.5 1.5 0  2 1.5 0  2.5 1.5 0  3 1.5 0  3.5 1.5 0  4 1.5 0  4.5 1.5 0  5 1.5 0  5.5 1.5 0  6 1.5 0  6.5 1.5 0  7 1.5 0  7.5 1.5 0  8 1.5 0  8.5 1.5 0  9 1.5 0  9.5 1.5 0  10 1.5 0  10.5 1.5 0  11 1.5 0  11.5 1.5 0  12 1.5 0  12.5 1.5 0  13 1.5 0  13.5 1.5 0  14 1.5 0  14.5 1.5 0  15 1.5 0  15.5 1.5 0  16 1.5 0  16.5 1.5 0  17 1.5 0  17.5 1.5 0  18 1.5 0  18.5 1.5 0  19 1.5 0  19.5 1.5 0  20 1.5 0  0 2 0  0.5 2 0  1 2 0  1.5 2 0  2 2 0  2.5 2 0  3 2 0  3.5 2 0  4 2 0  4.5 2 0  5 2 0  5.5 2 0  6 2 0  6.5 2 0  7 2 0  7.5 2 0  8 2 0  8.5 2 0  9 2 0  9.5 2 0  10 2 0  10.5 2 0  11 2 0  11.5 2 0  12 2 0  12.5 2 0  13 2 0  13.5 2 0  14 2 0  14.5 2 0  15 2 0  15.5 2 0  16 2 0  16.5 2 0  17 2 0  17.5 2 0  18 2 0  18.5 2 0  19 2 0  19.5 2 0  20 2 0  0 2.5 0  0.5 2.5 0  1 2.5 0  1.5 2.5 0  2 2.5 0  2.5 2.5 0  3 2.5 0  3.5 2.5 0  4 2.5 0  4.5 2.5 0  5 2.5 0  5.5 2.5 0  6 2.5 0  6.5 2.5 0  7 2.5 0  7.5 2.5 0  8 2.5 0  8.5 2.5 0  9 2.5 0  9.5 2.5 0  10 2.5 0  10.5 2.5 0  11 2.5 0  11.5 2.5 0  12 2.5 0  12.5 2.5 0  13 2.5 0  13.5 2.5 0  14 2.5 0  14.5 2.5 0  15 2.5 0  15.5 2.5 0  16 2.5 0  16.5 2.5 0  17 2.5 0  17.5 2.5 0  18 2.5 0  18.5 2.5 0  19 2.5 0  19.5 2.5 0  20 2.5 0  0 3 0  0.5 3 0  1 3 0  1.5 3 0  2 3 0  2.5 3 0  3 3 0  3.5 3 0  4 3 0  4.5 3 0  5 3 0  5.5 3 0  6 3 0  6.5 3 0  7 3 0  7.5 3 0  8 3 0  8.5 3 0  9 3 0  9.5 3 0  10 3 0  10.5 3 0  11 3 0  11.5 3 0  12 3 0  12.5 3 0  13 3 0  13.5 3 0  14 3 0  14.5 3 0  15 3 0  15.5 3 0  16 3 0  16.5 3 0  17 3 0  17.5 3 0  18 3 0  18.5 3 0  19 3 0  19.5 3 0  20 3 0  0 3.5 0  0.5 3.5 0  1 3.5 0  1.5 3.5 0  2 3.5 0  2.5 3.5 0  3 3.5 0  3.5 3.5 0  4 3.5 0  4.5 3.5 0  5 3.5 0  5.5 3.5 0  6 3.5 0  6.5 3.5 0  7 3.5 0  7.5 3.5 0  8 3.5 0  8.5 3.5 0  9 3.5 0  9.5 3.5 0  10 3.5 0  10.5 3.5 0  11 3.5 0  11.5 3.5 0  12 3.5 0  12.5 3.5 0  13 3.5 0  13.5 3.5 0  14 3.5 0  14.5 3.5 0  15 3.5 0  15.5 3.5 0  16 3.5 0  16.5 3.5 0  17 3.5 0  17.5 3.5 0  18 3.5 0  18.5 3.5 0  19 3.5 0  19.5 3.5 0  20 3.5 0  0 4 0  0.5 4 0  1 4 0  1.5 4 0  2 4 0  2.5 4 0  3 4 0  3.5 4 0  4 4 0  4.5 4 0  5 4 0  5.5 4 0  6 4 0  6.5 4 0  7 4 0  7.5 4 0  8 4 0  8.5 4 0  9 4 0  9.5 4 0  10 4 0  10.5 4 0  11 4 0  11.5 4 0  12 4 0  12.5 4 0  13 4 0  13.5 4 0  14 4 0  14.5 4 0  15 4 0  15.5 4 0  16 4 0  16.5 4 0  17 4 0  17.5 4 0  18 4 0  18.5 4 0  19 4 0  19.5 4 0  20 4 0  0 4.5 0  0.5 4.5 0  1 4.5 0  1.5 4.5 0  2 4.5 0  2.5 4.5 0  3 4.5 0  3.5 4.5 0  4 4.5 0  4.5 4.5 0  5 4.5 0  5.5 4.5 0  6 4.5 0  6.5 4.5 0  7 4.5 0  7.5 4.5 0  8 4.5 0  8.5 4.5 0  9 4.5 0  9.5 4.5 0  10 4.5 0  10.5 4.5 0  11 4.5 0  11.5 4.5 0  12 4.5 0  12.5 4.5 0  13 4.5 0  13.5 4.5 0  14 4.5 0  14.5 4.5 0  15 4.5 0  15.5 4.5 0  16 4.5 0  16.5 4.5 0  17 4.5 0  17.5 4.5 0  18 4.5 0  18.5 4.5 0  19 4.5 0  19.5 4.5 0  20 4.5 0  0 5 0  0.5 5 0  1 5 0  1.5 5 0  2 5 0  2.5 5 0  3 5 0  3.5 5 0  4 5 0  4.5 5 0  5 5 0  5.5 5 0  6 5 0  6.5 5 0  7 5 0  7.5 5 0  8 5 0  8.5 5 0  9 5 0  9.5 5 0  10 5 0  10.5 5 0  11 5 0  11.5 5 0  12 5 0  12.5 5 0  13 5 0  13.5 5 0  14 5 0  14.5 5 0  15 5 0  15.5 5 0  16 5 0  16.5 5 0  17 5 0  17.5 5 0  18 5 0  18.5 5 0  19 5 0  19.5 5 0  20 5 0  0 5.5 0  0.5 5.5 0  1 5.5 0  1.5 5.5 0  2 5.5 0  2.5 5.5 0  3 5.5 0  3.5 5.5 0  4 5.5 0  4.5 5.5 0  5 5.5 0  5.5 5.5 0  6 5.5 0  6.5 5.5 0  7 5.5 0  7.5 5.5 0  8 5.5 0  8.5 5.5 0  9 5.5 0  9.5 5.5 0  10 5.5 0  10.5 5.5 0  11 5.5 0  11.5 5.5 0  12 5.5 0  12.5 5.5 0  13 5.5 0  13.5 5.5 0  14 5.5 0  14.5 5.5 0  15 5.5 0  15.5 5.5 0  16 5.5 0  16.5 5.5 0  17 5.5 0  17.5 5.5 0  18 5.5 0  18.5 5.5 0  19 5.5 0  19.5 5.5 0  20 5.5 0  0 6 0  0.5 6 0  1 6 0  1.5 6 0  2 6 0  2.5 6 0  3 6 0  3.5 6 0  4 6 0  4.5 6 0  5 6 0  5.5 6 0  6 6 0  6.5 6 0  7 6 0  7.5 6 0  8 6 0  8.5 6 0  9 6 0  9.5 6 0  10 6 0  10.5 6 0  11 6 0  11.5 6 0  12 6 0  12.5 6 0  13 6 0  13.5 6 0  14 6 0  14.5 6 0  15 6 0  15.5 6 0  16 6 0  16.5 6 0  17 6 0  17.5 6 0  18 6 0  18.5 6 0  19 6 0  19.5 6 0  20 6 0  0 6.5 0  0.5 6.5 0  1 6.5 0  1.5 6.5 0  2 6.5 0  2.5 6.5 0  3 6.5 0  3.5 6.5 0  4 6.5 0  4.5 6.5 0  5 6.5 0  5.5 6.5 0  6 6.5 0  6.5 6.5 0  7 6.5 0  7.5 6.5 0  8 6.5 0  8.5 6.5 0  9 6.5 0  9.5 6.5 0  10 6.5 0  10.5 6.5 0  11 6.5 0  11.5 6.5 0  12 6.5 0  12.5 6.5 0  13 6.5 0  13.5 6.5 0  14 6.5 0  14.5 6.5 0  15 6.5 0  15.5 6.5 0  16 6.5 0  16.5 6.5 0  17 6.5 0  17.5 6.5 0  18 6.5 0  18.5 6.5 0  19 6.5 0  19.5 6.5 0  20 6.5 0  0 7 0  0.5 7 0  1 7 0  1.5 7 0  2 7 0  2.5 7 0  3 7 0  3.5 7 0  4 7 0  4.5 7 0  5 7 0  5.5 7 0  6 7 0  6.5 7 0  7 7 0  7.5 7 0  8 7 0  8.5 7 0  9 7 0  9.5 7 0  10 7 0  10.5 7 0  11 7 0  11.5 7 0  12 7 0  12.5 7 0  13 7 0  13.5 7 0  14 7 0  14.5 7 0  15 7 0  15.5 7 0  16 7 0  16.5 7 0  17 7 0  17.5 7 0  18 7 0  18.5 7 0  19 7 0  19.5 7 0  20 7 0  0 7.5 0  0.5 7.5 0  1 7.5 0  1.5 7.5 0  2 7.5 0  2.5 7.5 0  3 7.5 0  3.5 7.5 0  4 7.5 0  4.5 7.5 0  5 7.5 0  5.5 7.5 0  6 7.5 0  6.5 7.5 0  7 7.5 0  7.5 7.5 0  8 7.5 0  8.5 7.5 0  9 7.5 0  9.5 7.5 0  10 7.5 0  10.5 7.5 0  11 7.5 0  11.5 7.5 0  12 7.5 0  12.5 7.5 0  13 7.5 0  13.5 7.5 0  14 7.5 0  14.5 7.5 0  15 7.5 0  15.5 7.5 0  16 7.5 0  16.5 7.5 0  17 7.5 0  17.5 7.5 0  18 7.5 0  18.5 7.5 0  19 7.5 0  19.5 7.5 0  20 7.5 0  0 8 0  0.5 8 0  1 8 0  1.5 8 0  2 8 0  2.5 8 0  3 8 0  3.5 8 0  4 8 0  4.5 8 0  5 8 0  5.5 8 0  6 8 0  6.5 8 0  7 8 0  7.5 8 0  8 8 0  8.5 8 0  9 8 0  9.5 8 0  10 8 0  10.5 8 0  11 8 0  11.5 8 0  12 8 0  12.5 8 0  13 8 0  13.5 8 0  14 8 0  14.5 8 0  15 8 0  15.5 8 0  16 8 0  16.5 8 0  17 8 0  17.5 8 0  18 8 0  18.5 8 0  19 8 0  19.5 8 0  20 8 0  0 8.5 0  0.5 8.5 0  1 8.5 0  1.5 8.5 0  2 8.5 0  2.5 8.5 0  3 8.5 0  3.5 8.5 0  4 8.5 0  4.5 8.5 0  5 8.5 0  5.5 8.5 0  6 8.5 0  6.5 8.5 0  7 8.5 0  7.5 8.5 0  8 8.5 0  8.5 8.5 0  9 8.5 0  9.5 8.5 0  10 8.5 0  10.5 8.5 0  11 8.5 0  11.5 8.5 0  12 8.5 0  12.5 8.5 0  13 8.5 0  13.5 8.5 0  14 8.5 0  14.5 8.5 0  15 8.5 0  15.5 8.5 0  16 8.5 0  16.5 8.5 0  17 8.5 0  17.5 8.5 0  18 8.5 0  18.5 8.5 0  19 8.5 0  19.5 8.5 0  20 8.5 0  0 9 0  0.5 9 0  1 9 0  1.5 9 0  2 9 0  2.5 9 0  3 9 0  3.5 9 0  4 9 0  4.5 9 0  5 9 0  5.5 9 0  6 9 0  6.5 9 0  7 9 0  7.5 9 0  8 9 0  8.5 9 0  9 9 0  9.5 9 0  10 9 0  10.5 9 0  11 9 0  11.5 9 0  12 9 0  12.5 9 0  13 9 0  13.5 9 0  14 9 0  14.5 9 0  15 9 0  15.5 9 0  16 9 0  16.5 9 0  17 9 0  17.5 9 0  18 9 0  18.5 9 0  19 9 0  19.5 9 0  20 9 0  0 9.5 0  0.5 9.5 0  1 9.5 0  1.5 9.5 0  2 9.5 0  2.5 9.5 0  3 9.5 0  3.5 9.5 0  4 9.5 0  4.5 9.5 0  5 9.5 0  5.5 9.5 0  6 9.5 0  6.5 9.5 0  7 9.5 0  7.5 9.5 0  8 9.5 0  8.5 9.5 0  9 9.5 0  9.5 9.5 0  10 9.5 0  10.5 9.5 0  11 9.5 0  11.5 9.5 0  12 9.5 0  12.5 9.5 0  13 9.5 0  13.5 9.5 0  14 9.5 0  14.5 9.5 0  15 9.5 0  15.5 9.5 0  16 9.5 0  16.5 9.5 0  17 9.5 0  17.5 9.5 0  18 9.5 0  18.5 9.5 0  19 9.5 0  19.5 9.5 0  20 9.5 0  0 10 0  0.5 10 0  1 10 0  1.5 10 0  2 10 0  2.5 10 0  3 10 0  3.5 10 0  4 10 0  4.5 10 0  5 10 0  5.5 10 0  6 10 0  6.5 10 0  7 10 0  7.5 10 0  8 10 0  8.5 10 0  9 10 0  9.5 10 0  10 10 0  10.5 10 0  11 10 0  11.5 10 0  12 10 0  12.5 10 0  13 10 0  13.5 10 0  14 10 0  14.5 10 0  15 10 0  15.5 10 0  16 10 0  16.5 10 0  17 10 0  17.5 10 0  18 10 0  18.5 10 0  19 10 0  19.5 10 0  20 10 0  0 10.5 0  0.5 10.5 0  1 10.5 0  1.5 10.5 0  2 10.5 0  2.5 10.5 0  3 10.5 0  3.5 10.5 0  4 10.5 0  4.5 10.5 0  5 10.5 0  5.5 10.5 0  6 10.5 0  6.5 10.5 0  7 10.5 0  7.5 10.5 0  8 10.5 0  8.5 10.5 0  9 10.5 0  9.5 10.5 0  10 10.5 0  10.5 10.5 0  11 10.5 0  11.5 10.5 0  12 10.5 0  12.5 10.5 0  13 10.5 0  13.5 10.5 0  14 10.5 0  14.5 10.5 0  15 10.5 0  15.5 10.5 0  16 10.5 0  16.5 10.5 0  17 10.5 0  17.5 10.5 0  18 10.5 0  18.5 10.5 0  19 10.5 0  19.5 10.5 0  20 10.5 0  0 11 0  0.5 11 0  1 11 0  1.5 11 0  2 11 0  2.5 11 0  3 11 0  3.5 11 0  4 11 0  4.5 11 0  5 11 0  5.5 11 0  6 11 0  6.5 11 0  7 11 0  7.5 11 0  8 11 0  8.5 11 0  9 11 0  9.5 11 0  10 11 0  10.5 11 0  11 11 0  11.5 11 0  12 11 0  12.5 11 0  13 11 0  13.5 11 0  14 11 0  14.5 11 0  15 11 0  15.5 11 0  16 11 0  16.5 11 0  17 11 0  17.5 11 0  18 11 0  18.5 11 0  19 11 0  19.5 11 0  20 11 0  0 11.5 0  0.5 11.5 0  1 11.5 0  1.5 11.5 0  2 11.5 0  2.5 11.5 0  3 11.5 0  3.5 11.5 0  4 11.5 0  4.5 11.5 0  5 11.5 0  5.5 11.5 0  6 11.5 0  6.5 11.5 0  7 11.5 0  7.5 11.5 0  8 11.5 0  8.5 11.5 0  9 11.5 0  9.5 11.5 0  10 11.5 0  10.5 11.5 0  11 11.5 0  11.5 11.5 0  12 11.5 0  12.5 11.5 0  13 11.5 0  13.5 11.5 0  14 11.5 0  14.5 11.5 0  15 11.5 0  15.5 11.5 0  16 11.5 0  16.5 11.5 0  17 11.5 0  17.5 11.5 0  18 11.5 0  18.5 11.5 0  19 11.5 0  19.5 11.5 0  20 11.5 0  0 12 0  0.5 12 0  1 12 0  1.5 12 0  2 12 0  2.5 12 0  3 12 0  3.5 12 0  4 12 0  4.5 12 0  5 12 0  5.5 12 0  6 12 0  6.5 12 0  7 12 0  7.5 12 0  8 12 0  8.5 12 0  9 12 0  9.5 12 0  10 12 0  10.5 12 0  11 12 0  11.5 12 0  12 12 0  12.5 12 0  13 12 0  13.5 12 0  14 12 0  14.5 12 0  
[...]
<PointData  Vectors="f_4890-0"> 
<DataArray  type="Float64"  Name="f_4890-0"  NumberOfComponents="3" format="ascii">0.0000000000000000e+00 0.0000000000000000e+00 0.0000000000000000e+00  -4.2122125596154286e-07 0.0000000000000000e+00 0.0000000000000000e+00  -1.9360944453266181e-06 0.0000000000000000e+00 0.0000000000000000e+00  -6.0545272878815349e-06 0.0000000000000000e+00 0.0000000000000000e+00  -1.4072233528954832e-05 0.0000000000000000e+00 0.0000000000000000e+00  -2.7256421915844890e-05 0.0000000000000000e+00 0.0000000000000000e+00  -4.6852212316048536e-05 0.0000000000000000e+00 0.0000000000000000e+00  -7.4075940738207655e-05 0.0000000000000000e+00 0.0000000000000000e+00  -1.1010762580808792e-04 0.0000000000000000e+00 0.0000000000000000e+00  -1.5608297321754026e-04 0.0000000000000000e+00 0.0000000000000000e+00  -2.1308462501338907e-04 0.0000000000000000e+00 0.0000000000000000e+00  -2.8213236938269917e-04 0.0000000000000000e+00 0.0000000000000000e+00  -3.6417198134560492e-04 0.0000000000000000e+00 0.0000000000000000e+00  -4.6006224693882574e-04 0.0000000000000000e+00 0.0000000000000000e+00  -5.7055952562705880e-04 0.0000000000000000e+00 0.0000000000000000e+00  -6.9629890114112638e-04 0.0000000000000000e+00 0.0000000000000000e+00  -8.3777051194474153e-04 0.0000000000000000e+00 0.0000000000000000e+00  -9.9528897282303783e-04 0.0000000000000000e+00 0.0000000000000000e+00  -1.1689528065187533e-03 0.0000000000000000e+00 0.0000000000000000e+00  -1.3585893763638642e-03 0.0000000000000000e+00 0.0000000000000000e+00  -1.5636787876779179e-03 0.0000000000000000e+00 0.0000000000000000e+00  -1.7832474071204770e-03 0.0000000000000000e+00 0.0000000000000000e+00  -2.0157177948261760e-03 0.0000000000000000e+00 0.0000000000000000e+00  -2.2586966830953066e-03 0.0000000000000000e+00 0.0000000000000000e+00  -2.5086758896130574e-03 0.0000000000000000e+00 0.0000000000000000e+00  -2.7606124835511574e-03 0.0000000000000000e+00 0.0000000000000000e+00  -3.0073440008982874e-03 0.0000000000000000e+00 0.0000000000000000e+00  -3.2387821188416821e-03 0.0000000000000000e+00 0.0000000000000000e+00  -3.4408143803004373e-03 0.0000000000000000e+00 0.0000000000000000e+00  -3.5938292212296346e-03 0.0000000000000000e+00 0.0000000000000000e+00  -3.6707661718096835e-03 0.0000000000000000e+00 0.0000000000000000e+00  -3.6345826766024606e-03 0.0000000000000000e+00 0.0000000000000000e+00  -3.4350237280908868e-03 0.0000000000000000e+00 0.0000000000000000e+00  -3.0045821792209363e-03 0.0000000000000000e+00 0.0000000000000000e+00  -2.2535462459302314e-03 0.0000000000000000e+00 0.0000000000000000e+00  -1.0640428467982726e-03 0.0000000000000000e+00 0.0000000000000000e+00  7.1700864662669283e-04 0.0000000000000000e+00 0.0000000000000000e+00  3.2861390357712544e-03 0.0000000000000000e+00 0.0000000000000000e+00  6.8929763543238457e-03 0.0000000000000000e+00 0.0000000000000000e+00  1.1851915075776796e-02 0.0000000000000000e+00 0.0000000000000000e+00  1.8558869849790365e-02 0.0000000000000000e+00 0.0000000000000000e+00  0.0000000000000000e+00 -4.2122125531518065e-07 0.0000000000000000e+00  4.2871480645562447e-07 4.2871481043211392e-07 0.0000000000000000e+00  -4.9651710257245252e-07 2.4824112025811022e-06 0.0000000000000000e+00  -3.9929997187483678e-06 5.7581592156089211e-06 0.0000000000000000e+00  -1.1369392987221613e-05 1.0289238134615996e-05 0.0000000000000000e+00  -2.3905681772355313e-05 1.6074979370082542e-05 0.0000000000000000e+00  -4.2852157578306309e-05 2.3095813940581792e-05 0.0000000000000000e+00  -6.9427496861125564e-05 3.1321335728912411e-05 0.0000000000000000e+00  -1.0481325832575035e-04 4.0712861304132541e-05 0.0000000000000000e+00  -1.5014660492487173e-04 5.1223889460224678e-05 0.0000000000000000e+00  -2.0651182215942072e-04 6.2799846655181015e-05 0.0000000000000000e+00  -2.7493064291405093e-04 7.5377587250566080e-05 0.0000000000000000e+00  -3.5635114417655777e-04 8.8884807931897001e-05 0.0000000000000000e+00  -4.5163479931748294e-04 1.0323944070514012e-04 0.0000000000000000e+00  -5.6154105147998893e-04 1.1834906131709778e-04 0.0000000000000000e+00  -6.8670846141708126e-04 1.3411034346579173e-04 0.0000000000000000e+00  -8.2763102112171105e-04 1.5040858915844091e-04 0.0000000000000000e+00  -9.8462754363119439e-04 1.6711736795717039e-04 0.0000000000000000e+00  -1.1578010458827056e-03 1.8409830113282503e-04 0.0000000000000000e+00  -1.3469836130466260e-03 2.0120103071310944e-04 0.0000000000000000e+00  -1.5516602091451754e-03 2.1826341720721087e-04 0.0000000000000000e+00  -1.7708620798886296e-03 2.3511201440015611e-04 0.0000000000000000e+00  -2.0030165392582399e-03 2.5156287381837859e-04 0.0000000000000000e+00  -2.2457347701636018e-03 2.6742273584058163e-04 0.0000000000000000e+00  -2.4955125243722553e-03 2.8249066707865380e-04 0.0000000000000000e+00  -2.7473100379137813e-03 2.9656020375927618e-04 0.0000000000000000e+00  -2.9939669574034805e-03 3.0942205454139609e-04 0.0000000000000000e+00  -3.2253956864901892e-03 3.2086739902913256e-04 0.0000000000000000e+00  -3.4274827417650664e-03 3.3069178459285459e-04 0.0000000000000000e+00  -3.5806133625122228e-03 3.3869956561103124e-04 0.0000000000000000e+00  -3.6577212216910822e-03 3.4470874161751999e-04 0.0000000000000000e+00  -3.6217546292539567e-03 3.4855593145868076e-04 0.0000000000000000e+00  -3.4224453188738740e-03 3.5010107779175970e-04 0.0000000000000000e+00  -2.9922675178820665e-03 3.4923132817796530e-04 0.0000000000000000e+00  -2.2414836134449275e-03 3.4586340278055865e-04 0.0000000000000000e+00  -1.0521850522703250e-03 3.3994358871074876e-04 0.0000000000000000e+00  7.2875572444020063e-04 3.3144391870048060e-04 0.0000000000000000e+00  3.2979214020119416e-03 3.2035023302733864e-04 0.0000000000000000e+00  6.9049365842622570e-03 3.0662425814084087e-04 0.0000000000000000e+00  1.1863700413583424e-02 2.9006032424379064e-04 0.0000000000000000e+00  1.8565494749950614e-02 2.6969220555412670e-04 0.0000000000000000e+00  0.0000000000000000e+00 -1.9360944394661369e-06 0.0000000000000000e+00  2.4824112052248026e-06 -4.9651710070297341e-07 0.0000000000000000e+00  3.5250935587722879e-06 3.5250935529743118e-06 0.0000000000000000e+00  1.9709365963860444e-06 1.0088377925068509e-05 0.0000000000000000e+00  -3.4639288057051200e-06 1.9181351595138408e-05 0.0000000000000000e+00  -1.4055459320192595e-05 3.0778913191449612e-05 0.0000000000000000e+00  -3.1056147896841044e-05 4.4839486046643643e-05 0.0000000000000000e+00  -5.5688048151871507e-05 6.1304723031952799e-05 0.0000000000000000e+00  -8.9136428932122332e-05 8.0099960230420642e-05 0.0000000000000000e+00  -1.3254261382067135e-04 1.0113431342982113e-04 0.0000000000000000e+00  -1.8699573509279590e-04 1.2430025125287656e-04 0.0000000000000000e+00  -2.5352324951930595e-04 1.4947278549160405e-04 0.0000000000000000e+00  -3.3307996618298346e-04 1.7650844039468290e-04 0.0000000000000000e+00  -4.2653517898699408e-04 2.0524412427265040e-04 0.0000000000000000e+00  -5.3465727685700793e-04 2.3549599586455351e-04 0.0000000000000000e+00  -6.5809488777445596e-04 2.6705840193034407e-04 0.0000000000000000e+00  -7.9735314715619629e-04 2.9970295768128074e-04 0.0000000000000000e+00  -9.5276299744996617e-04 3.3317784278268412e-04 0.0000000000000000e+00  -1.1244404307297047e-03 3.6720739018681605e-04 0.0000000000000000e+00  -1.3122311564271083e-03 4.0149205111382079e-04 0.0000000000000000e+00  -1.5156341515234436e-03 4.3570882618980254e-04 0.0000000000000000e+00  -1.7336947311676195e-03 4.6951225946376232e-04 0.0000000000000000e+00  -1.9648539223515384e-03 5.0253609805630379e-04 0.0000000000000000e+00  -2.2067357624467590e-03 5.3439572422529313e-04 0.0000000000000000e+00  -2.4558474001559875e-03 5.6469146726164092e-04 0.0000000000000000e+00  -2.7071583104404618e-03 5.9301289620385599e-04 0.0000000000000000e+00  -2.9535144198275828e-03 6.1894417662257677e-04 0.0000000000000000e+00  -3.1848305618542043e-03 6.4207053830648588e-04 0.0000000000000000e+00  -3.3869908765875893e-03 6.6198583721753025e-04 0.0000000000000000e+00  -3.5403724410687045e-03 6.7830109349540496e-04 0.0000000000000000e+00  -3.6178940408598797e-03 6.9065373852829489e-04 0.0000000000000000e+00  -3.5824815551951969e-03 6.9871709894676773e-04 0.0000000000000000e+00  -3.3838361440236674e-03 7.0220937725569193e-04 0.0000000000000000e+00  -2.9543930600444850e-03 7.0090103519608333e-04 0.0000000000000000e+00  -2.2043676288485410e-03 6.9461895251312809e-04 0.0000000000000000e+00  -1.0157977160892338e-03 6.8324466719647749e-04 0.0000000000000000e+00  7.6449912909671062e-04 6.6670123041162306e-04 0.0000000000000000e+00  3.3331445449691220e-03 6.4491515353762708e-04 0.0000000000000000e+00  6.9397285023758953e-03 6.1771663142536775e-04 0.0000000000000000e+00  1.1897862926901403e-02 5.8457971098383680e-04 0.0000000000000000e+00  1.8597999906131858e-02 5.4397922652547079e-04 0.0000000000000000e+00  0.0000000000000000e+00 -6.0545272881650953e-06 0.0000000000000000e+00  5.7581592182665776e-06 -3.9929997213523012e-06 0.0000000000000000e+00  1.0088377926893572e-05 1.9709365909215706e-06 0.0000000000000000e+00  1.1791567757460379e-05 1.1791567756548189e-05 0.0000000000000000e+00  9.6043230363181860e-06 2.5430551732469969e-05 0.0000000000000000e+00  2.2565973004314888e-06 4.2837986253882419e-05 0.0000000000000000e+00  -1.1503586268737518e-05 6.3944873916690475e-05 0.0000000000000000e+00  -3.2900671445904492e-05 8.8661419738765728e-05 0.0000000000000000e+00  -6.3124273481834930e-05 1.1687592994510413e-04 0.0000000000000000e+00  -1.0332168950117851e-04 1.4845361030883073e-04 0.0000000000000000e+00  -1.5458961686291503e-04 1.8323519709652548e-04 0.0000000000000000e+00  -2.1796474499162158e-04 2.2103541828550675e-04 0.0000000000000000e+00  -2.9441288154409507e-04 2.6164132239342322e-04 0.0000000000000000e+00  -3.8481616338395882e-04 3.0481054179342233e-04 0.0000000000000000e+00  -4.8995770441890869e-04 3.5026957410437889e-04 0.0000000000000000e+00  -6.1050272369379214e-04 3.9771217519453985e-04 0.0000000000000000e+00  -7.4697473446948541e-04 4.4679796499744710e-04 0.0000000000000000e+00  -8.9972469153375254e-04 4.9715135529416164e-04 0.0000000000000000e+00  -1.0688899985703746e-03 5.4836091773212880e-04 0.0000000000000000e+00  -1.2543388468604175e-03 5.9997931969632133e-04 0.0000000000000000e+00  -1.4555933314621772e-03 6.5152396502448653e-04 0.0000000000000000e+00  -1.6717219711523889e-03 7.0247848480092508e-04 0.0000000000000000e+00  -1.9011884038297258e-03 7.5229522931929754e-04 0.0000000000000000e+00  -2.1416378699215988e-03 8.0039891372866902e-04 0.0000000000000000e+00  -2.3895963557948822e-03 8.4619156463339401e-04 0.0000000000000000e+00  -2.6400487103749007e-03 8.8905889745531522e-04 0.0000000000000000e+00  -2.8858515445268568e-03 9.2837822018526964e-04 0.0000000000000000e+00  -3.1169243641671830e-03 9.6352789763289829e-04 0.0000000000000000e+00  -3.3191486072879049e-03 9.9389831218272737e-04 0.0000000000000000e+00  -3.4728899612462218e-03 1.0189041070782882e-03 0.0000000000000000e+00  -3.5510460004034338e-03 1.0379972823109426e-03 0.0000000000000000e+00  -3.5165107946265942e-03 1.0506804106888883e-03 0.0000000000000000e+00  -3.3189429183068746e-03 1.0565188237629617e-03 0.0000000000000000e+00  -2.8907250371245463e-03 1.0551500155228644e-03 0.0000000000000000e+00  -2.1420122450538505e-03 1.0462875532207744e-03 0.0000000000000000e+00  -9.5477986070853808e-04 1.0297150298393886e-03 0.0000000000000000e+00  8.2420765812386268e-04 1.0052620441240417e-03 0.0000000000000000e+00  3.3915886356339540e-03 9.7274701737972401e-04 0.0000000000000000e+00  6.9968712050890716e-03 9.3185925757097968e-04 0.0000000000000000e+00  1.1953356866716017e-02 8.8194261889143802e-04 0.0000000000000000e+00  1.8650778224084365e-02 8.2169280371148078e-04 0.0000000000000000e+00  0.0000000000000000e+00 -1.4072233531182090e-05 0.0000000000000000e+00  1.0289238134138294e-05 -1.1369392989604115e-05 0.0000000000000000e+00  1.9181351595054420e-05 -3.4639288083120176e-06 0.0000000000000000e+00  2.5430551731079069e-05 9.6043230364847500e-06 0.0000000000000000e+00  2.7780000310679750e-05 2.7780000312151267e-05 0.0000000000000000e+00  2.4963965053241318e-05 5.0991800500626316e-05 0.0000000000000000e+00  1.5730515974075024e-05 7.9145356991929563e-05 0.0000000000000000e+00  -1.1476427560282582e-06 1.1212044923108334e-04 0.0000000000000000e+00  -2.6865370632965034e-05 1.4976907974791843e-04 0.0000000000000000e+00  -6.2577524344385789e-05 1.9191353254879013e-04 0.0000000000000000e+00  -1.0939073414002688e-04 2.3834424075337693e-04 0.0000000000000000e+00  -1.6835409726558386e-04 2.8881748023775432e-04 0.0000000000000000e+00  -2.4044840843653501e-04 3.4305295003288699e-04 0.0000000000000000e+00  -3.2657345007599609e-04 4.0073131669661510e-04 0.0000000000000000e+00  -4.2753267233516118e-04 4.6149181489907711e-04 0.0000000000000000e+00  -5.4401428765807965e-04 5.2493001266550195e-04 0.0000000000000000e+00  -6.7656734379760984e-04 5.9059586596568270e-04 0.0000000000000000e+00  -8.2557065648105308e-04 6.5799220318799837e-04 0.0000000000000000e+00  -9.9119148790682973e-04 7.2657379570886273e-04 0.0000000000000000e+00  -1.1733294265865158e-03 7.9574718523221745e-04 0.0000000000000000e+00  -1.3715388996306248e-03 8.6487145125856959e-04 0.0000000000000000e+00  -1.5849209295219387e-03 9.3326011237797725e-04 0.0000000000000000e+00  -1.8119708956014083e-03 1.0001843598068621e-03 0.0000000000000000e+00  -2.0503639055186860e-03 1.0648778195599903e-03 0.0000000000000000e+00  -2.2966526493657844e-03 1.1265430260778797e-03 0.0000000000000000e+00  -2.5458440621647163e-03 1.1843597594709181e-03 0.0000000000000000e+00  -2.7908106354462784e-03 1.2374953441131413e-03 0.0000000000000000e+00  -3.0214798858185800e-03 1.2851169168309805e-03 0.0000000000000000e+00  -3.2237317432187622e-03 1.3264055367496201e-03 0.0000000000000000e+00  -3.3779193732706809e-03 1.3605718092982188e-03 0.0000000000000000e+00  -3.4569156692192144e-03 1.3868724160873422e-03 0.0000000000000000e+00  -3.4235773328376959e-03 1.4046265553265373e-03 0.0000000000000000e+00  -3.2275133482701406e-03 1.4132307701267808e-03 0.0000000000000000e+00  -2.8010465837090856e-03 1.4121699092965326e-03 0.0000000000000000e+00  -2.0542666216331845e-03 1.4010209080012376e-03 0.0000000000000000e+00  -8.6908623630054590e-04 1.3794444927122038e-03 0.0000000000000000e+00  9.0777359283451158e-04 1.3471576264169843e-03 0.0000000000000000e+00  3.4729465905484909e-03 1.3038769924038197e-03 0.0000000000000000e+00  7.0758404102977167e-03 1.2492245789958946e-03 0.0000000000000000e+00  1.2029503533914404e-02 1.1826036659191308e-03 0.0000000000000000e+00  1.8723293551345867e-02 1.1031224479443442e-03 0.0000000000000000e+00  0.0000000000000000e+00 -2.7256421917730972e-05 0.0000000000000000e+00  1.6074979371181391e-05 -2.3905681773624551e-05 0.0000000000000000e+00  3.0778913193575292e-05 -1.4055459321791043e-05 0.0000000000000000e+00  4.2837986253068800e-05 2.2565972981907237e-06 0.0000000000000000e+00  5.0991800503025425e-05 2.4963965053680802e-05 0.0000000000000000e+00  5.3976845561711001e-05 5.3976845560982776e-05 0.0000000000000000e+00  5.0540646285714555e-05 8.9177769878197045e-05 0.0000000000000000e+00  3.9452418968047207e-05 1.3041826413931300e-04 0.0000000000000000e+00  1.9511018380348838e-05 1.7751623082858646e-04 0.0000000000000000e+00  -1.0447552136516116e-05 2.3025333006163704e-04 0.0000000000000000e+00  -5.1542080535680686e-05 2.8837215681057934e-04 0.0000000000000000e+00  -1.0483702534835652e-04 3.5157321009481903e-04 0.0000000000000000e+00  -1.7133191030187754e-04 4.1951171961579525e-04 0.0000000000000000e+00  -2.5194873155073849e-04 4.9179442483314386e-04 0.0000000000000000e+00  -3.4751668759251539e-04 5.6797642124563168e-04 0.0000000000000000e+00  -4.5875323769327099e-04 6.4755820732714439e-04 0.0000000000000000e+00  -5.8624003313359398e-04 7.2998308570150321e-04 0.0000000000000000e+00  -7.3039158273225529e-04 8.1463509237583124e-04 0.0000000000000000e+00  -8.9141351842357563e-04 9.0083764881329176e-04 0.0000000000000000e+00  -1.0692458966323347e-03 9.8785315072619272e-04 0.0000000000000000e+00  -1.2634849476576484e-03 1.0748837240785862e-03 0.0000000000000000e+00  -1.4732738690749210e-03 1.1610733910542238e-03 0.0000000000000000e+00  -1.6971494118928723e-03 1.2455118931345172e-03 0.0000000000000000e+00  -1.9328258610127051e-03 1.3272404126006847e-03 0.0000000000000000e+00  -2.1768912908275029e-03 1.4052594118081465e-03 0.0000000000000000e+00  -2.4243824475811537e-03 1.4785387655411875e-03 0.0000000000000000e+00  -2.6681941500129561e-03 1.5460302868124339e-03 0.0000000000000000e+00  -2.8982668009074593e-03 1.6066826297793258e-03 0.0000000000000000e+00  -3.1004819009112167e-03 1.6594583819399885e-03 0.0000000000000000e+00  -3.2551812629864393e-03 1.7033529153510981e-03 0.0000000000000000e+00  -3.3352124142481854e-03 1.7374142372988664e-03 0.0000000000000000e+00  -3.3033924400775873e-03 1.7607626450325262e-03 0.0000000000000000e+00  -3.1092775233430084e-03 1.7726084295191420e-03 0.0000000000000000e+00  -2.6851275324809975e-03 1.7722651714806854e-03 0.0000000000000000e+00  -1.9409646479076998e-03 1.7591553315547703e-03 0.0000000000000000e+00  -7.5863971684738915e-04 1.7328039440639533e-03 0.0000000000000000e+00  1.0151672226089326e-03 1.6928156890837838e-03 0.0000000000000000e+00  3.5770880632196131e-03 1.6388317653755729e-03 0.0000000000000000e+00  7.1764628881287144e-03 1.5704692475455723e-03 0.0000000000000000e+00  1.2126208094444004e-02 1.4872637218848910e-03 0.0000000000000000e+00  1.8815590485748299e-02 1.3886723952591616e-03 0.0000000000000000e+00  0.0000000000000000e+00 -4.6852212319673912e-05 0.0000000000000000e+00  2.3095813940452007e-05 -4.2852157579185156e-05 0.0000000000000000e+00  4.4839486041493852e-05 -3.1056147898972978e-05 0.0000000000000000e+00  6.3944873912611489e-05 -1.1503586269906984e-05 0.0000000000000000e+00  7.9145356987809284e-05 1.5730515974373847e-05 0.0000000000000000e+00  8.9177769871349265e-05 5.0540646289484299e-05 0.0000000000000000e+00  9.2788666248454945e-05 9.2788666250027418e-05 0.0000000000000000e+00  8.8743403650724893e-05 1.4230041977605874e-04 0.0000000000000000e+00  7.5833792895034125e-05 1.9886253944378053e-04 0.0000000000000000e+00  5.2885389242878122e-05 2.6221916191932425e-04 0.0000000000000000e+00  1.8765293770297670e-05 3.3206839906762967e-04 0.0000000000000000e+00  -2.7608989230537129e-05 4.0805855818174365e-04 0.0000000000000000e+00  -8.7259177825991697e-05 4.8978417897942357e-04 0.0000000000000000e+00  -1.6113379030014154e-04 5.7678199345506491e-04 0.0000000000000000e+00  -2.5009296194819508e-04 6.6852694206900464e-04 0.0000000000000000e+00  -3.5488948417709056e-04 7.6442840437348472e-04 0.0000000000000000e+00  -4.7614458743577343e-04 8.6382682734991746e-04 0.0000000000000000e+00  -6.1431630536142490e-04 9.6599096029421135e-04 0.0000000000000000e+00  -7.6965726157793323e-04 1.0701159308605470e-03 0.0000000000000000e+00  -9.4215729076110768e-04 1.1753224212428851e-03 0.0000000000000000e+00  -1.1314642839362356e-03 1.2806572241658783e-03 0.0000000000000000e+00  -1.3367738357832376e-03 1.3850954734651057e-03 0.0000000000000000e+00  -1.5566744311399294e-03 1.4875448491877953e-03 0.0000000000000000e+00  -1.7889297716996025e-03 1.5868520485539288e-03 0.0000000000000000e+00  -2.0301731392610221e-03 1.6818117858387752e-03 0.0000000000000000e+00  -2.2754801856128826e-03 1.7711785282809264e-03 0.0000000000000000e+00  -2.5177761098271511e-03 1.8536810829620574e-03 0.0000000000000000e+00  -2.7470209254213209e-03 1.9280400098130657e-03 0.0000000000000000e+00  -2.9491028686109201e-03 1.9929876358475498e-03 0.0000000000000000e+00  -3.1043558652001520e-03 2.0472901725994098e-03 0.0000000000000000e+00  -3.1856038296969929e-03 2.0897710810226268e-03 0.0000000000000000e+00  -3.1556244120393875e-03 2.1193343801806396e-03 0.0000000000000000e+00  -2.9639198852380016e-03 2.1349860653483181e-03 0.0000000000000000e+00  -2.5426850493067352e-03 2.1358512245149403e-03 0.0000000000000000e+00  -1.8018717166695189e-03 2.1211839197630032e-03 0.0000000000