<?xml version="1.0"?>
<VTKFile type="UnstructuredGrid"  version="0.1"  >
<UnstructuredGrid>
<Piece  NumberOfPoints="1681" NumberOfCells="3200">
<Points>
<DataArray  type="Float64"  NumberOfComponents="3"  format="ascii">0 0 0  0.5 0 0  1 0 0  1.5 0 0  2 0 0  2.5 0 0  3 0 0  3.5 0 0  4 0 0  4.5 0 0  5 0 0  5.5 0 0  6 0 0  6.5 0 0  7 0 0  7.5 0 0  8 0 0  8.5 0 0  9 0 0  9.5 0 0  10 0 0  10.5 0 0  11 0 0  11.5 0 0  12 0 0  12.5 0 0  13 0 0  13.5 0 0  14 0 0  14.5 0 0  15 0 0  15.5 0 0  16 0 0  16.5 0 0  17 0 0  17.5 0 0  18 0 0  18.5 0 0  19 0 0  19.5 0 0  20 0 0  0 0.5 0  0.5 0.5 0  1 0.5 0  1.5 0.5 0  2 0.5 0  2.5 0.5 0  3 0.5 0  3.5 0.5 0  4 0.5 0  4.5 0.5 0  5 0.5 0  5.5 0.5 0  6 0.5 0  6.5 0.5 0  7 0.5 0  7.5 0.5 0  8 0.5 0  8.5 0.5 0  9 0.5 0  9.5 0.5 0  10 0.5 0  10.5 0.5 0  11 0.5 0  11.5 0.5 0  12 0.5 0  12.5 0.5 0  13 0.5 0  13.5 0.5 0  14 0.5 0  14.5 0.5 0  15 0.5 0  15.5 0.5 0  16 0.5 0  16.5 0.5 0  17 0.5 0  17.5 0.5 0  18 0.5 0  18.5 0.5 0  19 0.5 0  19.5 0.5 0  20 0.5 0  0 1 0  0.5 1 0  1 1 0  1.5 1 0  2 1 0  2.5 1 0  3 1 0  3.5 1 0  4 1 0  4.5 1 0  5 1 0  5.5 1 0  6 1 0  6.5 1 0  7 1 0  7.5 1 0  8 1 0  8.5 1 0  9 1 0  9.5 1 0  10 1 0  10.5 1 0  11 1 0  11.5 1 0  12 1 0  12.5 1 0  13 1 0  13.5 1 0  14 1 0  14.5 1 0  15 1 0  15.5 1 0  16 1 0  16.5 1 0  17 1 0  17.5 1 0  18 1 0  18.5 1 0  19 1 0  19.5 1 0  20 1 0  0 1.5 0  0.5 1.5 0  1 1.5 0  1.5 1.5 0  2 1.5 0  2.5 1.5 0  3 1.5 0  3.5 1.5 0  4 1.5 0  4.5 1.5 0  5 1.5 0  5.5 1.5 0  6 1.5 0  6.5 1.5 0  7 1.5 0  7.5 1.5 0  8 1.5 0  8.5 1.5 0  9 1.5 0  9.5 1.5 0  10 1.5 0  10.5 1.5 0  11 1.5 0  11.5 1.5 0  12 1.5 0  12.5 1.5 0  13 1.5 0  13.5 1.5 0  14 1.5 0  14.5 1.5 0  15 1.5 0  15.5 1.5 0  16 1.5 0  16.5 1.5 0  17 1.5 0  17.5 1.5 0  18 1.5 0  18.5 1.5 0  19 1.5 0  19.5 1.5 0  20 1.5 0  0 2 0  0.5 2 0  1 2 0  1.5 2 0  2 2 0  2.5 2 0  3 2 0  3.5 2 0  4 2 0  4.5 2 0  5 2 0  5.5 2 0  6 2 0  6.5 2 0  7 2 0  7.5 2 0  8 2 0  8.5 2 0  9 2 0  9.5 2 0  10 2 0  10.5 2 0  11 2 0  11.5 2 0  12 2 0  12.5 2 0  13 2 0  13.5 2 0  14 2 0  14.5 2 0  15 2 0  15.5 2 0  16 2 0  16.5 2 0  17 2 0  17.5 2 0  18 2 0  18.5 2 0  19 2 0  19.5 2 0  20 2 0  0 2.5 0  0.5 2.5 0  1 2.5 0  1.5 2.5 0  2 2.5 0  2.5 2.5 0  3 2.5 0  3.5 2.5 0  4 2.5 0  4.5 2.5 0  5 2.5 0  5.5 2.5 0  6 2.5 0  6.5 2.5 0  7 2.5 0  7.5 2.5 0  8 2.5 0  8.5 2.5 0  9 2.5 0  9.5 2.5 0  10 2.5 0  10.5 2.5 0  11 2.5 0  11.5 2.5 0  12 2.5 0  12.5 2.5 0  13 2.5 0  13.5 2.5 0  14 2.5 0  14.5 2.5 0  15 2.5 0  15.5 2.5 0  16 2.5 0  16.5 2.5 0  17 2.5 0  17.5 2.5 0  18 2.5 0  18.5 2.5 0  19 2.5 0  19.5 2.5 0  20 2.5 0  0 3 0  0.5 3 0  1 3 0  1.5 3 0  2 3 0  2.5 3 0  3 3 0  3.5 3 0  4 3 0  4.5 3 0  5 3 0  5.5 3 0  6 3 0  6.5 3 0  7 3 0  7.5 3 0  8 3 0  8.5 3 0  9 3 0  9.5 3 0  10 3 0  10.5 3 0  11 3 0  11.5 3 0  12 3 0  12.5 3 0  13 3 0  13.5 3 0  14 3 0  14.5 3 0  15 3 0  15.5 3 0  16 3 0  16.5 3 0  17 3 0  17.5 3 0  18 3 0  18.5 3 0  19 3 0  19.5 3 0  20 3 0  0 3.5 0  0.5 3.5 0  1 3.5 0  1.5 3.5 0  2 3.5 0  2.5 3.5 0  3 3.5 0  3.5 3.5 0  4 3.5 0  4.5 3.5 0  5 3.5 0  5.5 3.5 0  6 3.5 0  6.5 3.5 0  7 3.5 0  7.5 3.5 0  8 3.5 0  8.5 3.5 0  9 3.5 0  9.5 3.5 0  10 3.5 0  10.5 3.5 0  11 3.5 0  11.5 3.5 0  12 3.5 0  12.5 3.5 0  13 3.5 0  13.5 3.5 0  14 3.5 0  14.5 3.5 0  15 3.5 0  15.5 3.5 0  16 3.5 0  16.5 3.5 0  17 3.5 0  17.5 3.5 0  18 3.5 0  18.5 3.5 0  19 3.5 0  19.5 3.5 0  20 3.5 0  0 4 0  0.5 4 0  1 4 0  1.5 4 0  2 4 0  2.5 4 0  3 4 0  3.5 4 0  4 4 0  4.5 4 0  5 4 0  5.5 4 0  6 4 0  6.5 4 0  7 4 0  7.5 4 0  8 4 0  8.5 4 0  9 4 0  9.5 4 0  10 4 0  10.5 4 0  11 4 0  11.5 4 0  12 4 0  12.5 4 0  13 4 0  13.5 4 0  14 4 0  14.5 4 0  15 4 0  15.5 4 0  16 4 0  16.5 4 0  17 4 0  17.5 4 0  18 4 0  18.5 4 0  19 4 0  19.5 4 0  20 4 0  0 4.5 0  0.5 4.5 0  1 4.5 0  1.5 4.5 0  2 4.5 0  2.5 4.5 0  3 4.5 0  3.5 4.5 0  4 4.5 0  4.5 4.5 0  5 4.5 0  5.5 4.5 0  6 4.5 0  6.5 4.5 0  7 4.5 0  7.5 4.5 0  8 4.5 0  8.5 4.5 0  9 4.5 0  9.5 4.5 0  10 4.5 0  10.5 4.5 0  11 4.5 0  11.5 4.5 0  12 4.5 0  12.5 4.5 0  13 4.5 0  13.5 4.5 0  14 4.5 0  14.5 4.5 0  15 4.5 0  15.5 4.5 0  16 4.5 0  16.5 4.5 0  17 4.5 0  17.5 4.5 0  18 4.5 0  18.5 4.5 0  19 4.5 0  19.5 4.5 0  20 4.5 0  0 5 0  0.5 5 0  1 5 0  1.5 5 0  2 5 0  2.5 5 0  3 5 0  3.5 5 0  4 5 0  4.5 5 0  5 5 0  5.5 5 0  6 5 0  6.5 5 0  7 5 0  7.5 5 0  8 5 0  8.5 5 0  9 5 0  9.5 5 0  10 5 0  10.5 5 0  11 5 0  11.5 5 0  12 5 0  12.5 5 0  13 5 0  13.5 5 0  14 5 0  14.5 5 0  15 5 0  15.5 5 0  16 5 0  16.5 5 0  17 5 0  17.5 5 0  18 5 0  18.5 5 0  19 5 0  19.5 5 0  20 5 0  0 5.5 0  0.5 5.5 0  1 5.5 0  1.5 5.5 0  2 5.5 0  2.5 5.5 0  3 5.5 0  3.5 5.5 0  4 5.5 0  4.5 5.5 0  5 5.5 0  5.5 5.5 0  6 5.5 0  6.5 5.5 0  7 5.5 0  7.5 5.5 0  8 5.5 0  8.5 5.5 0  9 5.5 0  9.5 5.5 0  10 5.5 0  10.5 5.5 0  11 5.5 0  11.5 5.5 0  12 5.5 0  12.5 5.5 0  13 5.5 0  13.5 5.5 0  14 5.5 0  14.5 5.5 0  15 5.5 0  15.5 5.5 0  16 5.5 0  16.5 5.5 0  17 5.5 0  17.5 5.5 0  18 5.5 0  18.5 5.5 0  19 5.5 0  19.5 5.5 0  20 5.5 0  0 6 0  0.5 6 0  1 6 0  1.5 6 0  2 6 0  2.5 6 0  3 6 0  3.5 6 0  4 6 0  4.5 6 0  5 6 0  5.5 6 0  6 6 0  6.5 6 0  7 6 0  7.5 6 0  8 6 0  8.5 6 0  9 6 0  9.5 6 0  10 6 0  10.5 6 0  11 6 0  11.5 6 0  12 6 0  12.5 6 0  13 6 0  13.5 6 0  14 6 0  14.5 6 0  15 6 0  15.5 6 0  16 6 0  16.5 6 0  17 6 0  17.5 6 0  18 6 0  18.5 6 0  19 6 0  19.5 6 0  20 6 0  0 6.5 0  0.5 6.5 0  1 6.5 0  1.5 6.5 0  2 6.5 0  2.5 6.5 0  3 6.5 0  3.5 6.5 0  4 6.5 0  4.5 6.5 0  5 6.5 0  5.5 6.5 0  6 6.5 0  6.5 6.5 0  7 6.5 0  7.5 6.5 0  8 6.5 0  8.5 6.5 0  9 6.5 0  9.5 6.5 0  10 6.5 0  10.5 6.5 0  11 6.5 0  11.5 6.5 0  12 6.5 0  12.5 6.5 0  13 6.5 0  13.5 6.5 0  14 6.5 0  14.5 6.5 0  15 6.5 0  15.5 6.5 0  16 6.5 0  16.5 6.5 0  17 6.5 0  17.5 6.5 0  18 6.5 0  18.5 6.5 0  19 6.5 0  19.5 6.5 0  20 6.5 0  0 7 0  0.5 7 0  1 7 0  1.5 7 0  2 7 0  2.5 7 0  3 7 0  3.5 7 0  4 7 0  4.5 7 0  5 7 0  5.5 7 0  6 7 0  6.5 7 0  7 7 0  7.5 7 0  8 7 0  8.5 7 0  9 7 0  9.5 7 0  10 7 0  10.5 7 0  11 7 0  11.5 7 0  12 7 0  12.5 7 0  13 7 0  13.5 7 0  14 7 0  14.5 7 0  15 7 0  15.5 7 0  16 7 0  16.5 7 0  17 7 0  17.5 7 0  18 7 0  18.5 7 0  19 7 0  19.5 7 0  20 7 0  0 7.5 0  0.5 7.5 0  1 7.5 0  1.5 7.5 0  2 7.5 0  2.5 7.5 0  3 7.5 0  3.5 7.5 0  4 7.5 0  4.5 7.5 0  5 7.5 0  5.5 7.5 0  6 7.5 0  6.5 7.5 0  7 7.5 0  7.5 7.5 0  8 7.5 0  8.5 7.5 0  9 7.5 0  9.5 7.5 0  10 7.5 0  10.5 7.5 0  11 7.5 0  11.5 7.5 0  12 7.5 0  12.5 7.5 0  13 7.5 0  13.5 7.5 0  14 7.5 0  14.5 7.5 0  15 7.5 0  15.5 7.5 0  16 7.5 0  16.5 7.5 0  17 7.5 0  17.5 7.5 0  18 7.5 0  18.5 7.5 0  19 7.5 0  19.5 7.5 0  20 7.5 0  0 8 0  0.5 8 0  1 8 0  1.5 8 0  2 8 0  2.5 8 0  3 8 0  3.5 8 0  4 8 0  4.5 8 0  5 8 0  5.5 8 0  6 8 0  6.5 8 0  7 8 0  7.5 8 0  8 8 0  8.5 8 0  9 8 0  9.5 8 0  10 8 0  10.5 8 0  11 8 0  11.5 8 0  12 8 0  12.5 8 0  13 8 0  13.5 8 0  14 8 0  14.5 8 0  15 8 0  15.5 8 0  16 8 0  16.5 8 0  17 8 0  17.5 8 0  18 8 0  18.5 8 0  19 8 0  19.5 8 0  20 8 0  0 8.5 0  0.5 8.5 0  1 8.5 0  1.5 8.5 0  2 8.5 0  2.5 8.5 0  3 8.5 0  3.5 8.5 0  4 8.5 0  4.5 8.5 0  5 8.5 0  5.5 8.5 0  6 8.5 0  6.5 8.5 0  7 8.5 0  7.5 8.5 0  8 8.5 0  8.5 8.5 0  9 8.5 0  9.5 8.5 0  10 8.5 0  10.5 8.5 0  11 8.5 0  11.5 8.5 0  12 8.5 0  12.5 8.5 0  13 8.5 0  13.5 8.5 0  14 8.5 0  14.5 8.5 0  15 8.5 0  15.5 8.5 0  16 8.5 0  16.5 8.5 0  17 8.5 0  17.5 8.5 0  18 8.5 0  18.5 8.5 0  19 8.5 0  19.5 8.5 0  20 8.5 0  0 9 0  0.5 9 0  1 9 0  1.5 9 0  2 9 0  2.5 9 0  3 9 0  3.5 9 0  4 9 0  4.5 9 0  5 9 0  5.5 9 0  6 9 0  6.5 9 0  7 9 0  7.5 9 0  8 9 0  8.5 9 0  9 9 0  9.5 9 0  10 9 0  10.5 9 0  11 9 0  11.5 9 0  12 9 0  12.5 9 0  13 9 0  13.5 9 0  14 9 0  14.5 9 0  15 9 0  15.5 9 0  16 9 0  16.5 9 0  17 9 0  17.5 9 0  18 9 0  18.5 9 0  19 9 0  19.5 9 0  20 9 0  0 9.5 0  0.5 9.5 0  1 9.5 0  1.5 9.5 0  2 9.5 0  2.5 9.5 0  3 9.5 0  3.5 9.5 0  4 9.5 0  4.5 9.5 0  5 9.5 0  5.5 9.5 0  6 9.5 0  6.5 9.5 0  7 9.5 0  7.5 9.5 0  8 9.5 0  8.5 9.5 0  9 9.5 0  9.5 9.5 0  10 9.5 0  10.5 9.5 0  11 9.5 0  11.5 9.5 0  12 9.5 0  12.5 9.5 0  13 9.5 0  13.5 9.5 0  14 9.5 0  14.5 9.5 0  15 9.5 0  15.5 9.5 0  16 9.5 0  16.5 9.5 0  17 9.5 0  17.5 9.5 0  18 9.5 0  18.5 9.5 0  19 9.5 0  19.5 9.5 0  20 9.5 0  0 10 0  0.5 10 0  1 10 0  1.5 10 0  2 10 0  2.5 10 0  3 10 0  3.5 10 0  4 10 0  4.5 10 0  5 10 0  5.5 10 0  6 10 0  6.5 10 0  7 10 0  7.5 10 0  8 10 0  8.5 10 0  9 10 0  9.5 10 0  10 10 0  10.5 10 0  11 10 0  11.5 10 0  12 10 0  12.5 10 0  13 10 0  13.5 10 0  14 10 0  14.5 10 0  15 10 0  15.5 10 0  16 10 0  16.5 10 0  17 10 0  17.5 10 0  18 10 0  18.5 10 0  19 10 0  19.5 10 0  20 10 0  0 10.5 0  0.5 10.5 0  1 10.5 0  1.5 10.5 0  2 10.5 0  2.5 10.5 0  3 10.5 0  3.5 10.5 0  4 10.5 0  4.5 10.5 0  5 10.5 0  5.5 10.5 0  6 10.5 0  6.5 10.5 0  7 10.5 0  7.5 10.5 0  8 10.5 0  8.5 10.5 0  9 10.5 0  9.5 10.5 0  10 10.5 0  10.5 10.5 0  11 10.5 0  11.5 10.5 0  12 10.5 0  12.5 10.5 0  13 10.5 0  13.5 10.5 0  14 10.5 0  14.5 10.5 0  15 10.5 0  15.5 10.5 0  16 10.5 0  16.5 10.5 0  17 10.5 0  17.5 10.5 0  18 10.5 0  18.5 10.5 0  19 10.5 0  19.5 10.5 0  20 10.5 0  0 11 0  0.5 11 0  1 11 0  1.5 11 0  2 11 0  2.5 11 0  3 11 0  3.5 11 0  4 11 0  4.5 11 0  5 11 0  5.5 11 0  6 11 0  6.5 11 0  7 11 0  7.5 11 0  8 11 0  8.5 11 0  9 11 0  9.5 11 0  10 11 0  10.5 11 0  11 11 0  11.5 11 0  12 11 0  12.5 11 0  13 11 0  13.5 11 0  14 11 0  14.5 11 0  15 11 0  15.5 11 0  16 11 0  16.5 11 0  17 11 0  17.5 11 0  18 11 0  18.5 11 0  19 11 0  19.5 11 0  20 11 0  0 11.5 0  0.5 11.5 0  1 11.5 0  1.5 11.5 0  2 11.5 0  2.5 11.5 0  3 11.5 0  3.5 11.5 0  4 11.5 0  4.5 11.5 0  5 11.5 0  5.5 11.5 0  6 11.5 0  6.5 11.5 0  7 11.5 0  7.5 11.5 0  8 11.5 0  8.5 11.5 0  9 11.5 0  9.5 11.5 0  10 11.5 0  10.5 11.5 0  11 11.5 0  11.5 11.5 0  12 11.5 0  12.5 11.5 0  13 11.5 0  13.5 11.5 0  14 11.5 0  14.5 11.5 0  15 11.5 0  15.5 11.5 0  16 11.5 0  16.5 11.5 0  17 11.5 0  17.5 11.5 0  18 11.5 0  18.5 11.5 0  19 11.5 0  19.5 11.5 0  20 11.5 0  0 12 0  0.5 12 0  1 12 0  1.5 12 0  2 12 0  2.5 12 0  3 12 0  3.5 12 0  4 12 0  4.5 12 0  5 12 0  5.5 12 0  6 12 0  6.5 12 0  7 12 0  7.5 12 0  8 12 0  8.5 12 0  9 12 0  9.5 12 0  10 12 0  10.5 12 0  11 12 0  11.5 12 0  12 12 0  12.5 12 0  13 12 0  13.5 12 0  14 12 0  14.5 12 0  
[...]
<PointData  Vectors="f_2975-0"> 
<DataArray  type="Float64"  Name="f_2975-0"  NumberOfComponents="3" format="ascii">0.0000000000000000e+00 0.0000000000000000e+00 0.0000000000000000e+00  -1.1642283528115867e-06 0.0000000000000000e+00 0.0000000000000000e+00  -6.5212353172889124e-06 0.0000000000000000e+00 0.0000000000000000e+00  -2.2265695437913417e-05 0.0000000000000000e+00 0.0000000000000000e+00  -5.3571806518892571e-05 0.0000000000000000e+00 0.0000000000000000e+00  -1.0544667529982784e-04 0.0000000000000000e+00 0.0000000000000000e+00  -1.8275291158693116e-04 0.0000000000000000e+00 0.0000000000000000e+00  -2.9016242406190316e-04 0.0000000000000000e+00 0.0000000000000000e+00  -4.3209935915503489e-04 0.0000000000000000e+00 0.0000000000000000e+00  -6.1267295507968849e-04 0.0000000000000000e+00 0.0000000000000000e+00  -8.3559703536875642e-04 0.0000000000000000e+00 0.0000000000000000e+00  -1.1040923850128624e-03 0.0000000000000000e+00 0.0000000000000000e+00  -1.4207676626408921e-03 0.0000000000000000e+00 0.0000000000000000e+00  -1.7874736994632993e-03 0.0000000000000000e+00 0.0000000000000000e+00  -2.2051250790850229e-03 0.0000000000000000e+00 0.0000000000000000e+00  -2.6734818102192720e-03 0.0000000000000000e+00 0.0000000000000000e+00  -3.1908827127375638e-03 0.0000000000000000e+00 0.0000000000000000e+00  -3.7539208573971615e-03 0.0000000000000000e+00 0.0000000000000000e+00  -4.3570500567467769e-03 0.0000000000000000e+00 0.0000000000000000e+00  -4.9921100297165817e-03 0.0000000000000000e+00 0.0000000000000000e+00  -5.6477564854752055e-03 0.0000000000000000e+00 0.0000000000000000e+00  -6.3087810144203957e-03 0.0000000000000000e+00 0.0000000000000000e+00  -6.9553043356243294e-03 0.0000000000000000e+00 0.0000000000000000e+00  -7.5618250927738809e-03 0.0000000000000000e+00 0.0000000000000000e+00  -8.0961049150590908e-03 0.0000000000000000e+00 0.0000000000000000e+00  -8.5178686785962760e-03 0.0000000000000000e+00 0.0000000000000000e+00  -8.7772965096180357e-03 0.0000000000000000e+00 0.0000000000000000e+00  -8.8132805947700663e-03 0.0000000000000000e+00 0.0000000000000000e+00  -8.5514146294471457e-03 0.0000000000000000e+00 0.0000000000000000e+00  -7.9016757967785532e-03 0.0000000000000000e+00 0.0000000000000000e+00  -6.7557472192812280e-03 0.0000000000000000e+00 0.0000000000000000e+00  -4.9839110498424355e-03 0.0000000000000000e+00 0.0000000000000000e+00  -2.4314161995809417e-03 0.0000000000000000e+00 0.0000000000000000e+00  1.0858136353954584e-03 0.0000000000000000e+00 0.0000000000000000e+00  5.7863223269984309e-03 0.0000000000000000e+00 0.0000000000000000e+00  1.1929388807579145e-02 0.0000000000000000e+00 0.0000000000000000e+00  1.9822824680742358e-02 0.0000000000000000e+00 0.0000000000000000e+00  2.9832927146719933e-02 0.0000000000000000e+00 0.0000000000000000e+00  4.2397675232430161e-02 0.0000000000000000e+00 0.0000000000000000e+00  5.8045732402982081e-02 0.0000000000000000e+00 0.0000000000000000e+00  7.7429768300688442e-02 0.0000000000000000e+00 0.0000000000000000e+00  0.0000000000000000e+00 -1.1642283587378086e-06 0.0000000000000000e+00  2.4071850120840094e-06 2.4071850107471733e-06 0.0000000000000000e+00  -5.8850827287286449e-07 1.0853964130301495e-05 0.0000000000000000e+00  -1.3827210759602860e-05 2.4240107056018335e-05 0.0000000000000000e+00  -4.2534764652892684e-05 4.2722977682016504e-05 0.0000000000000000e+00  -9.1776519750188319e-05 6.6313869763577472e-05 0.0000000000000000e+00  -1.6643952507131628e-04 9.4941527698957296e-05 0.0000000000000000e+00  -2.7120684052949932e-04 1.2848852574332849e-04 0.0000000000000000e+00  -4.1050959713054839e-04 1.6680352205705834e-04 0.0000000000000000e+00  -5.8846315166520807e-04 2.0970404459016623e-04 0.0000000000000000e+00  -8.0878784197667777e-04 2.5697599571637328e-04 0.0000000000000000e+00  -1.0747119109119838e-03 3.0837200773771358e-04 0.0000000000000000e+00  -1.3888526875588632e-03 3.6360937835829736e-04 0.0000000000000000e+00  -1.7530710240917381e-03 4.2236787178982690e-04 0.0000000000000000e+00  -2.1682929353592124e-03 4.8428753708775190e-04 0.0000000000000000e+00  -2.6342912716341895e-03 5.4896665750919175e-04 0.0000000000000000e+00  -3.1494190498565218e-03 6.1595993791177723e-04 0.0000000000000000e+00  -3.7102847824663065e-03 6.8477704129149943e-04 0.0000000000000000e+00  -4.3113587971421452e-03 7.5488159214799492e-04 0.0000000000000000e+00  -4.9444981646604410e-03 8.2569077129336155e-04 0.0000000000000000e+00  -5.5983764745816704e-03 8.9657563173877234e-04 0.0000000000000000e+00  -6.2578033409311151e-03 9.6686226704209230e-04 0.0000000000000000e+00  -6.9029171821443011e-03 1.0358339610728642e-03 0.0000000000000000e+00  -7.5082334628979843e-03 1.1027344400257957e-03 0.0000000000000000e+00  -8.0415291104812634e-03 1.1667723318802017e-03 0.0000000000000000e+00  -8.4625420380616493e-03 1.2271269146937949e-03 0.0000000000000000e+00  -8.7214623120876848e-03 1.2829552005933895e-03 0.0000000000000000e+00  -8.7571880217709626e-03 1.3334003555358859e-03 0.0000000000000000e+00  -8.4953136668264873e-03 1.3776013945467924e-03 0.0000000000000000e+00  -7.8458109263501302e-03 1.4147040173808376e-03 0.0000000000000000e+00  -6.7003496975581601e-03 1.4438723614844903e-03 0.0000000000000000e+00  -4.9291894893606965e-03 1.4643013510355950e-03 0.0000000000000000e+00  -2.3775450787017417e-03 1.4752292145410217e-03 0.0000000000000000e+00  1.1387078927135416e-03 1.4759496187791410e-03 0.0000000000000000e+00  5.8381775116208030e-03 1.4658226797236249e-03 0.0000000000000000e+00  1.1980222498127449e-02 1.4442837917207950e-03 0.0000000000000000e+00  1.9872735576355965e-02 1.4108489806521965e-03 0.0000000000000000e+00  2.9882021947002346e-02 1.3651175879000439e-03 0.0000000000000000e+00  4.2445627205762559e-02 1.3067883194456888e-03 0.0000000000000000e+00  5.8089265193662719e-02 1.2357669595588726e-03 0.0000000000000000e+00  7.7447956734736312e-02 1.1525366608893162e-03 0.0000000000000000e+00  0.0000000000000000e+00 -6.5212353258231056e-06 0.0000000000000000e+00  1.0853964129986182e-05 -5.8850827229444390e-07 0.0000000000000000e+00  1.5883628856916299e-05 1.5883628857027256e-05 0.0000000000000000e+00  1.0548264392132943e-05 4.2695061005077851e-05 0.0000000000000000e+00  -1.0260121220340162e-05 7.9799557625850673e-05 0.0000000000000000e+00  -5.1585673068953363e-05 1.2710428476481471e-04 0.0000000000000000e+00  -1.1832360564770855e-04 1.8445108919496489e-04 0.0000000000000000e+00  -2.1517063518616369e-04 2.5161407650082861e-04 0.0000000000000000e+00  -3.4657263620039869e-04 3.2830177098806958e-04 0.0000000000000000e+00  -5.1666101747489910e-04 4.1415826800924400e-04 0.0000000000000000e+00  -7.2917437477461257e-04 5.0876229360963536e-04 0.0000000000000000e+00  -9.8736218083589973e-04 6.1162463809669740e-04 0.0000000000000000e+00  -1.2938665027499171e-03 7.2218460456737377e-04 0.0000000000000000e+00  -1.6505767749630290e-03 8.3980596927245451e-04 0.0000000000000000e+00  -2.0584516082554202e-03 9.6377281525543109e-04 0.0000000000000000e+00  -2.5173004819742262e-03 1.0932855238748706e-03 0.0000000000000000e+00  -3.0255169483004219e-03 1.2274571762517644e-03 0.0000000000000000e+00  -3.5797536826127963e-03 1.3653106096939509e-03 0.0000000000000000e+00  -4.1745283640861114e-03 1.5057763788998587e-03 0.0000000000000000e+00  -4.8017479929903378e-03 1.6476918808066806e-03 0.0000000000000000e+00  -5.4501378744304845e-03 1.7898019100563655e-03 0.0000000000000000e+00  -6.1045601433084113e-03 1.9307609150843554e-03 0.0000000000000000e+00  -6.7452053711699643e-03 2.0691372209915002e-03 0.0000000000000000e+00  -7.3466394444848199e-03 2.2034194700240694e-03 0.0000000000000000e+00  -7.8766864354302257e-03 2.3320255022999076e-03 0.0000000000000000e+00  -8.2951264135983065e-03 2.4533138546169509e-03 0.0000000000000000e+00  -8.5521847600488095e-03 2.5655979913530988e-03 0.0000000000000000e+00  -8.5867860742116150e-03 2.6671632953834739e-03 0.0000000000000000e+00  -8.3245405307255157e-03 2.7562867374348776e-03 0.0000000000000000e+00  -7.6754225988477252e-03 2.8312590074720491e-03 0.0000000000000000e+00  -6.5310900781267479e-03 2.8904087324738543e-03 0.0000000000000000e+00  -4.7617736374120775e-03 2.9321282217406961e-03 0.0000000000000000e+00  -2.2126409739639725e-03 2.9548999703519411e-03 0.0000000000000000e+00  1.3004982272712604e-03 2.9573228982876397e-03 0.0000000000000000e+00  5.9963353909978307e-03 2.9381369662912498e-03 0.0000000000000000e+00  1.2134323120802084e-02 2.8962442981208328e-03 0.0000000000000000e+00  2.0022438516123807e-02 2.8307238697193775e-03 0.0000000000000000e+00  3.0027009721751895e-02 2.7408326582777833e-03 0.0000000000000000e+00  4.2585421697020856e-02 2.6259634554052255e-03 0.0000000000000000e+00  5.8222866020114283e-02 2.4854106354513200e-03 0.0000000000000000e+00  7.7574754271251753e-02 2.3172261210918717e-03 0.0000000000000000e+00  0.0000000000000000e+00 -2.2265695447233446e-05 0.0000000000000000e+00  2.4240107060820063e-05 -1.3827210759163768e-05 0.0000000000000000e+00  4.2695061008367151e-05 1.0548264388039873e-05 0.0000000000000000e+00  5.0640782166823372e-05 5.0640782159497268e-05 0.0000000000000000e+00  4.3066775523894544e-05 1.0628876550908875e-04 0.0000000000000000e+00  1.4958947450719848e-05 1.7729475311688945e-04 0.0000000000000000e+00  -3.8572631099843204e-05 2.6338824168087879e-04 0.0000000000000000e+00  -1.2223218230363175e-04 3.6421719086717082e-04 0.0000000000000000e+00  -2.4048116110349216e-04 4.7934339648745639e-04 0.0000000000000000e+00  -3.9747282490046635e-04 6.0823801520512360e-04 0.0000000000000000e+00  -5.9697347792350176e-04 7.5027668327105142e-04 0.0000000000000000e+00  -8.4226632147853394e-04 9.0473406171786858e-04 0.0000000000000000e+00  -1.1360334921510049e-03 1.0707778552696951e-03 0.0000000000000000e+00  -1.4802111250410636e-03 1.2474625009177172e-03 0.0000000000000000e+00  -1.8758113305081055e-03 1.4337228005500285e-03 0.0000000000000000e+00  -2.3227038826932681e-03 1.6283678102312236e-03 0.0000000000000000e+00  -2.8193492162077983e-03 1.8300753208833793e-03 0.0000000000000000e+00  -3.3624730390409766e-03 2.0373872844827536e-03 0.0000000000000000e+00  -3.9466715221690811e-03 2.2487065592991643e-03 0.0000000000000000e+00  -4.5639346511543713e-03 2.4622953662516477e-03 0.0000000000000000e+00  -5.2030739518634135e-03 2.6762758632259470e-03 0.0000000000000000e+00  -5.8490394525706636e-03 2.8886332512781461e-03 0.0000000000000000e+00  -6.4821094183654115e-03 3.0972218225991674e-03 0.0000000000000000e+00  -7.0769350522005212e-03 3.2997743403216373e-03 0.0000000000000000e+00  -7.6014209008552578e-03 3.4939151004710158e-03 0.0000000000000000e+00  -8.0154199454908481e-03 3.6771769624734806e-03 0.0000000000000000e+00  -8.2692199859628144e-03 3.8470225415533558e-03 0.0000000000000000e+00  -8.3017944748662933e-03 4.0008696298178140e-03 0.0000000000000000e+00  -8.0387857431102987e-03 4.1361207486782731e-03 0.0000000000000000e+00  -7.3901806360019947e-03 4.2501965284697614e-03 0.0000000000000000e+00  -6.2476266475858843e-03 4.3405723572548125e-03 0.0000000000000000e+00  -4.4813189211362157e-03 4.4048174292228692e-03 0.0000000000000000e+00  -1.9363625070629358e-03 4.4406349317821329e-03 0.0000000000000000e+00  1.5715234685568286e-03 4.4459015746802942e-03 0.0000000000000000e+00  6.2611477054170025e-03 4.4187038048264220e-03 0.0000000000000000e+00  1.2392101964857037e-02 4.3573663197719091e-03 0.0000000000000000e+00  2.0272512757045273e-02 4.2604641666298083e-03 0.0000000000000000e+00  3.0268842857552682e-02 4.1267974851776001e-03 0.0000000000000000e+00  4.2818543262612439e-02 3.9552737487841055e-03 0.0000000000000000e+00  5.8446693286354330e-02 3.7445615366144547e-03 0.0000000000000000e+00  7.7788191583907831e-02 3.4922705787095417e-03 0.0000000000000000e+00  0.0000000000000000e+00 -5.3571806529214880e-05 0.0000000000000000e+00  4.2722977676408969e-05 -4.2534764656636244e-05 0.0000000000000000e+00  7.9799557627806749e-05 -1.0260121219715997e-05 0.0000000000000000e+00  1.0628876551199933e-04 4.3066775519184614e-05 0.0000000000000000e+00  1.1721264615885276e-04 1.1721264615878326e-04 0.0000000000000000e+00  1.0757961492672115e-04 2.1189107716714609e-04 0.0000000000000000e+00  7.2503328166598707e-05 3.2672801261954043e-04 0.0000000000000000e+00  7.2709093577426032e-06 4.6124879080395605e-04 0.0000000000000000e+00  -9.2597264017816135e-05 6.1487019322173961e-04 0.0000000000000000e+00  -2.3128144642866791e-04 7.8689305017776493e-04 0.0000000000000000e+00  -4.1258376262481644e-04 9.7649437337794223e-04 0.0000000000000000e+00  -6.3983230490527400e-04 1.1827189273499019e-03 0.0000000000000000e+00  -9.1576349117532773e-04 1.4044703796837724e-03 0.0000000000000000e+00  -1.2423774062960502e-03 1.6405022495938222e-03 0.0000000000000000e+00  -1.6207599299567486e-03 1.8894089336990354e-03 0.0000000000000000e+00  -2.0508643823019183e-03 2.1496171455326753e-03 0.0000000000000000e+00  -2.5312442287065760e-03 2.4193781581589029e-03 0.0000000000000000e+00  -3.0587271044367928e-03 2.6967612872574533e-03 0.0000000000000000e+00  -3.6280190784585597e-03 2.9796490945379673e-03 0.0000000000000000e+00  -4.2312267059056267e-03 3.2657348277374196e-03 0.0000000000000000e+00  -4.8572830520257765e-03 3.5525226408413334e-03 0.0000000000000000e+00  -5.4912625289263309e-03 3.8373311545403274e-03 0.0000000000000000e+00  -6.1135680715081976e-03 4.1173009164970926e-03 0.0000000000000000e+00  -6.6989728514509949e-03 4.3894063000749668e-03 0.0000000000000000e+00  -7.2154972899703745e-03 4.6504723317716476e-03 0.0000000000000000e+00  -7.6231003927623286e-03 4.8971968566243100e-03 0.0000000000000000e+00  -7.8721620848045386e-03 5.1261783295852119e-03 0.0000000000000000e+00  -7.9017297975943444e-03 5.3339493530881431e-03 0.0000000000000000e+00  -7.6374973782372055e-03 5.5170158583546106e-03 0.0000000000000000e+00  -6.9894765015665380e-03 5.6719015417892749e-03 0.0000000000000000e+00  -5.8493088761118915e-03 5.7951968058280665e-03 0.0000000000000000e+00  -4.0871498708398169e-03 5.8836109940440667e-03 0.0000000000000000e+00  -1.5480283054710149e-03 5.9340261101192083e-03 0.0000000000000000e+00  1.9524504132065581e-03 5.9435493623631909e-03 0.0000000000000000e+00  6.6332448897534124e-03 5.9095605212342488e-03 0.0000000000000000e+00  1.2754127602336634e-02 5.8297475912118283e-03 0.0000000000000000e+00  2.0623423384997366e-02 5.7021193328745624e-03 0.0000000000000000e+00  3.0607781257445763e-02 5.5249735501116844e-03 0.0000000000000000e+00  4.3144762449652457e-02 5.2967856781251403e-03 0.0000000000000000e+00  5.8759364004835557e-02 5.0159812309180426e-03 0.0000000000000000e+00  7.8086083779827911e-02 4.6806592349841608e-03 0.0000000000000000e+00  0.0000000000000000e+00 -1.0544667530379202e-04 0.0000000000000000e+00  6.6313869763925595e-05 -9.1776519757251964e-05 0.0000000000000000e+00  1.2710428476963334e-04 -5.1585673075909083e-05 0.0000000000000000e+00  1.7729475312250068e-04 1.4958947446542346e-05 0.0000000000000000e+00  2.1189107717027074e-04 1.0757961492753039e-04 0.0000000000000000e+00  2.2591380054479775e-04 2.2591380054424459e-04 0.0000000000000000e+00  2.1447744379843913e-04 3.6949324895279461e-04 0.0000000000000000e+00  1.7285812924747225e-04 5.3772910686822242e-04 0.0000000000000000e+00  9.6554411395745646e-05 7.2990129448248021e-04 0.0000000000000000e+00  -1.8646490926805915e-05 9.4514854845430480e-04 0.0000000000000000e+00  -1.7659035392544344e-04 1.1824579769206644e-03 0.0000000000000000e+00  -3.8066063277291540e-04 1.4406539361234386e-03 0.0000000000000000e+00  -6.3366138157214681e-04 1.7183863718136783e-03 0.0000000000000000e+00  -9.3767303164815153e-04 2.0141189004477906e-03 0.0000000000000000e+00  -1.2938747616355779e-03 2.3261169786244580e-03 0.0000000000000000e+00  -1.7023261297098406e-03 2.6524365701938268e-03 0.0000000000000000e+00  -2.1616994509222297e-03 2.9909137810060472e-03 0.0000000000000000e+00  -2.6689531239650790e-03 3.3391559911072001e-03 0.0000000000000000e+00  -3.2189347730544799e-03 3.6945350723445662e-03 0.0000000000000000e+00  -3.8039017054316399e-03 4.0541833312889575e-03 0.0000000000000000e+00  -4.4129448254526015e-03 4.4149928593940199e-03 0.0000000000000000e+00  -5.0313008152255917e-03 4.7736190007113136e-03 0.0000000000000000e+00  -5.6395360906630974e-03 5.1264886549609347e-03 0.0000000000000000e+00  -6.2125847329389718e-03 5.4698141157157468e-03 0.0000000000000000e+00  -6.7186211806045124e-03 5.7996130910250064e-03 0.0000000000000000e+00  -7.1177467589326280e-03 6.1117354597362951e-03 0.0000000000000000e+00  -7.3604668113789679e-03 6.4018971714113427e-03 0.0000000000000000e+00  -7.3859318126308464e-03 6.6657214920074368e-03 0.0000000000000000e+00  -7.1199107045887226e-03 6.8987875192264500e-03 0.0000000000000000e+00  -6.4724568594205544e-03 7.0966855289859004e-03 0.0000000000000000e+00  -5.3352152430218196e-03 7.2550782497113131e-03 0.0000000000000000e+00  -3.5783017641949659e-03 7.3697665684148515e-03 0.0000000000000000e+00  -1.0466600266696609e-03 7.4367574059763155e-03 0.0000000000000000e+00  2.4442366488830179e-03 7.4523304672332955e-03 0.0000000000000000e+00  7.1135239024559911e-03 7.4130991007600542e-03 0.0000000000000000e+00  1.3221189260463822e-02 7.3160583111940543e-03 0.0000000000000000e+00  2.1075795091338664e-02 7.1586098445366002e-03 0.0000000000000000e+00  3.1044220867322489e-02 6.9385511205329259e-03 0.0000000000000000e+00  4.3564205030480058e-02 6.6540172124404167e-03 0.0000000000000000e+00  5.9160832989867525e-02 6.3033915204027411e-03 0.0000000000000000e+00  7.8468717068355509e-02 5.8852902069303865e-03 0.0000000000000000e+00  0.0000000000000000e+00 -1.8275291159269998e-04 0.0000000000000000e+00  9.4941527700173771e-05 -1.6643952507917087e-04 0.0000000000000000e+00  1.8445108919391595e-04 -1.1832360565353127e-04 0.0000000000000000e+00  2.6338824167580310e-04 -3.8572631099824536e-05 0.0000000000000000e+00  3.2672801261292804e-04 7.2503328162857775e-05 0.0000000000000000e+00  3.6949324894933151e-04 2.1447744380100970e-04 0.0000000000000000e+00  3.8679689075542354e-04 3.8679689075668539e-04 0.0000000000000000e+00  3.7390247090436407e-04 5.8876838478936545e-04 0.0000000000000000e+00  3.2628393205678204e-04 8.1954548774468511e-04 0.0000000000000000e+00  2.3969126624940395e-04 1.0781161925570147e-03 0.0000000000000000e+00  1.1022805533028646e-04 1.3632898898423783e-03 0.0000000000000000e+00  -6.5554095967409939e-05 1.6736835114483592e-03 0.0000000000000000e+00  -2.9053930022271928e-04 2.0077069872794038e-03 0.0000000000000000e+00  -5.6690381841670355e-04 2.3635483170564952e-03 0.0000000000000000e+00  -8.9593883609074914e-04 2.7391586584331229e-03 0.0000000000000000e+00  -1.2778321854591830e-03 3.1322379123664540e-03 0.0000000000000000e+00  -1.7114004298404296e-03 3.5402213614232373e-03 0.0000000000000000e+00  -2.1937614483978182e-03 3.9602679903402707e-03 0.0000000000000000e+00  -2.7199363216904716e-03 4.3892511906539651e-03 0.0000000000000000e+00  -3.2823679566385960e-03 4.8237526186515594e-03 0.0000000000000000e+00  -3.8703425367434215e-03 5.2600600334466738e-03 0.0000000000000000e+00  -4.4692985634344415e-03 5.6941699848069519e-03 0.0000000000000000e+00  -5.0600069693269249e-03 6.1217962397432926e-03 0.0000000000000000e+00  -5.6176044974269130e-03 6.5383848267211008e-03 0.0000000000000000e+00  -6.1104611540847070e-03 6.9391365255008592e-03 0.0000000000000000e+00  -6.4988608705822013e-03 7.3190375301326440e-03 0.0000000000000000e+00  -6.7334722403071543e-03 7.6728988502130103e-03 0.0000000000000000e+00  -6.7535828645730713e-03 7.9954047794736794e-03 0.0000000000000000e+00  -6.4850657620787108e-03 8.2811704364622700e-03 0.0000000000000000e+00  -5.8380385282635035e-03 8.5248079554012101e-03 0.0000000000000000e+00  -4.7041641782100876e-03 8.7210003576836254e-03 0.0000000000000000e+00  -2.9535251117457318e-03 8.8645814445802891e-03 0.0000000000000000e+00  -4.3097599438593720e-04 8.9506191934801901e-03 0.0000000000000000e+00  3.0481558157221802e-03 8.9744990815965996e-03 0.0000000000000000e+00  7.7032072011301743e-03 8.9320024858313956e-03 0.0000000000000000e+00  1.3794415