<?xml version="1.0"?>
<VTKFile type="UnstructuredGrid"  version="0.1"  >
<UnstructuredGrid>
<Piece  NumberOfPoints="1681" NumberOfCells="3200">
<Points>
<DataArray  type="Float64"  NumberOfComponents="3"  format="ascii">0 0 0  0.5 0 0  1 0 0  1.5 0 0  2 0 0  2.5 0 0  3 0 0  3.5 0 0  4 0 0  4.5 0 0  5 0 0  5.5 0 0  6 0 0  6.5 0 0  7 0 0  7.5 0 0  8 0 0  8.5 0 0  9 0 0  9.5 0 0  10 0 0  10.5 0 0  11 0 0  11.5 0 0  12 0 0  12.5 0 0  13 0 0  13.5 0 0  14 0 0  14.5 0 0  15 0 0  15.5 0 0  16 0 0  16.5 0 0  17 0 0  17.5 0 0  18 0 0  18.5 0 0  19 0 0  19.5 0 0  20 0 0  0 0.5 0  0.5 0.5 0  1 0.5 0  1.5 0.5 0  2 0.5 0  2.5 0.5 0  3 0.5 0  3.5 0.5 0  4 0.5 0  4.5 0.5 0  5 0.5 0  5.5 0.5 0  6 0.5 0  6.5 0.5 0  7 0.5 0  7.5 0.5 0  8 0.5 0  8.5 0.5 0  9 0.5 0  9.5 0.5 0  10 0.5 0  10.5 0.5 0  11 0.5 0  11.5 0.5 0  12 0.5 0  12.5 0.5 0  13 0.5 0  13.5 0.5 0  14 0.5 0  14.5 0.5 0  15 0.5 0  15.5 0.5 0  16 0.5 0  16.5 0.5 0  17 0.5 0  17.5 0.5 0  18 0.5 0  18.5 0.5 0  19 0.5 0  19.5 0.5 0  20 0.5 0  0 1 0  0.5 1 0  1 1 0  1.5 1 0  2 1 0  2.5 1 0  3 1 0  3.5 1 0  4 1 0  4.5 1 0  5 1 0  5.5 1 0  6 1 0  6.5 1 0  7 1 0  7.5 1 0  8 1 0  8.5 1 0  9 1 0  9.5 1 0  10 1 0  10.5 1 0  11 1 0  11.5 1 0  12 1 0  12.5 1 0  13 1 0  13.5 1 0  14 1 0  14.5 1 0  15 1 0  15.5 1 0  16 1 0  16.5 1 0  17 1 0  17.5 1 0  18 1 0  18.5 1 0  19 1 0  19.5 1 0  20 1 0  0 1.5 0  0.5 1.5 0  1 1.5 0  1.5 1.5 0  2 1.5 0  2.5 1.5 0  3 1.5 0  3.5 1.5 0  4 1.5 0  4.5 1.5 0  5 1.5 0  5.5 1.5 0  6 1.5 0  6.5 1.5 0  7 1.5 0  7.5 1.5 0  8 1.5 0  8.5 1.5 0  9 1.5 0  9.5 1.5 0  10 1.5 0  10.5 1.5 0  11 1.5 0  11.5 1.5 0  12 1.5 0  12.5 1.5 0  13 1.5 0  13.5 1.5 0  14 1.5 0  14.5 1.5 0  15 1.5 0  15.5 1.5 0  16 1.5 0  16.5 1.5 0  17 1.5 0  17.5 1.5 0  18 1.5 0  18.5 1.5 0  19 1.5 0  19.5 1.5 0  20 1.5 0  0 2 0  0.5 2 0  1 2 0  1.5 2 0  2 2 0  2.5 2 0  3 2 0  3.5 2 0  4 2 0  4.5 2 0  5 2 0  5.5 2 0  6 2 0  6.5 2 0  7 2 0  7.5 2 0  8 2 0  8.5 2 0  9 2 0  9.5 2 0  10 2 0  10.5 2 0  11 2 0  11.5 2 0  12 2 0  12.5 2 0  13 2 0  13.5 2 0  14 2 0  14.5 2 0  15 2 0  15.5 2 0  16 2 0  16.5 2 0  17 2 0  17.5 2 0  18 2 0  18.5 2 0  19 2 0  19.5 2 0  20 2 0  0 2.5 0  0.5 2.5 0  1 2.5 0  1.5 2.5 0  2 2.5 0  2.5 2.5 0  3 2.5 0  3.5 2.5 0  4 2.5 0  4.5 2.5 0  5 2.5 0  5.5 2.5 0  6 2.5 0  6.5 2.5 0  7 2.5 0  7.5 2.5 0  8 2.5 0  8.5 2.5 0  9 2.5 0  9.5 2.5 0  10 2.5 0  10.5 2.5 0  11 2.5 0  11.5 2.5 0  12 2.5 0  12.5 2.5 0  13 2.5 0  13.5 2.5 0  14 2.5 0  14.5 2.5 0  15 2.5 0  15.5 2.5 0  16 2.5 0  16.5 2.5 0  17 2.5 0  17.5 2.5 0  18 2.5 0  18.5 2.5 0  19 2.5 0  19.5 2.5 0  20 2.5 0  0 3 0  0.5 3 0  1 3 0  1.5 3 0  2 3 0  2.5 3 0  3 3 0  3.5 3 0  4 3 0  4.5 3 0  5 3 0  5.5 3 0  6 3 0  6.5 3 0  7 3 0  7.5 3 0  8 3 0  8.5 3 0  9 3 0  9.5 3 0  10 3 0  10.5 3 0  11 3 0  11.5 3 0  12 3 0  12.5 3 0  13 3 0  13.5 3 0  14 3 0  14.5 3 0  15 3 0  15.5 3 0  16 3 0  16.5 3 0  17 3 0  17.5 3 0  18 3 0  18.5 3 0  19 3 0  19.5 3 0  20 3 0  0 3.5 0  0.5 3.5 0  1 3.5 0  1.5 3.5 0  2 3.5 0  2.5 3.5 0  3 3.5 0  3.5 3.5 0  4 3.5 0  4.5 3.5 0  5 3.5 0  5.5 3.5 0  6 3.5 0  6.5 3.5 0  7 3.5 0  7.5 3.5 0  8 3.5 0  8.5 3.5 0  9 3.5 0  9.5 3.5 0  10 3.5 0  10.5 3.5 0  11 3.5 0  11.5 3.5 0  12 3.5 0  12.5 3.5 0  13 3.5 0  13.5 3.5 0  14 3.5 0  14.5 3.5 0  15 3.5 0  15.5 3.5 0  16 3.5 0  16.5 3.5 0  17 3.5 0  17.5 3.5 0  18 3.5 0  18.5 3.5 0  19 3.5 0  19.5 3.5 0  20 3.5 0  0 4 0  0.5 4 0  1 4 0  1.5 4 0  2 4 0  2.5 4 0  3 4 0  3.5 4 0  4 4 0  4.5 4 0  5 4 0  5.5 4 0  6 4 0  6.5 4 0  7 4 0  7.5 4 0  8 4 0  8.5 4 0  9 4 0  9.5 4 0  10 4 0  10.5 4 0  11 4 0  11.5 4 0  12 4 0  12.5 4 0  13 4 0  13.5 4 0  14 4 0  14.5 4 0  15 4 0  15.5 4 0  16 4 0  16.5 4 0  17 4 0  17.5 4 0  18 4 0  18.5 4 0  19 4 0  19.5 4 0  20 4 0  0 4.5 0  0.5 4.5 0  1 4.5 0  1.5 4.5 0  2 4.5 0  2.5 4.5 0  3 4.5 0  3.5 4.5 0  4 4.5 0  4.5 4.5 0  5 4.5 0  5.5 4.5 0  6 4.5 0  6.5 4.5 0  7 4.5 0  7.5 4.5 0  8 4.5 0  8.5 4.5 0  9 4.5 0  9.5 4.5 0  10 4.5 0  10.5 4.5 0  11 4.5 0  11.5 4.5 0  12 4.5 0  12.5 4.5 0  13 4.5 0  13.5 4.5 0  14 4.5 0  14.5 4.5 0  15 4.5 0  15.5 4.5 0  16 4.5 0  16.5 4.5 0  17 4.5 0  17.5 4.5 0  18 4.5 0  18.5 4.5 0  19 4.5 0  19.5 4.5 0  20 4.5 0  0 5 0  0.5 5 0  1 5 0  1.5 5 0  2 5 0  2.5 5 0  3 5 0  3.5 5 0  4 5 0  4.5 5 0  5 5 0  5.5 5 0  6 5 0  6.5 5 0  7 5 0  7.5 5 0  8 5 0  8.5 5 0  9 5 0  9.5 5 0  10 5 0  10.5 5 0  11 5 0  11.5 5 0  12 5 0  12.5 5 0  13 5 0  13.5 5 0  14 5 0  14.5 5 0  15 5 0  15.5 5 0  16 5 0  16.5 5 0  17 5 0  17.5 5 0  18 5 0  18.5 5 0  19 5 0  19.5 5 0  20 5 0  0 5.5 0  0.5 5.5 0  1 5.5 0  1.5 5.5 0  2 5.5 0  2.5 5.5 0  3 5.5 0  3.5 5.5 0  4 5.5 0  4.5 5.5 0  5 5.5 0  5.5 5.5 0  6 5.5 0  6.5 5.5 0  7 5.5 0  7.5 5.5 0  8 5.5 0  8.5 5.5 0  9 5.5 0  9.5 5.5 0  10 5.5 0  10.5 5.5 0  11 5.5 0  11.5 5.5 0  12 5.5 0  12.5 5.5 0  13 5.5 0  13.5 5.5 0  14 5.5 0  14.5 5.5 0  15 5.5 0  15.5 5.5 0  16 5.5 0  16.5 5.5 0  17 5.5 0  17.5 5.5 0  18 5.5 0  18.5 5.5 0  19 5.5 0  19.5 5.5 0  20 5.5 0  0 6 0  0.5 6 0  1 6 0  1.5 6 0  2 6 0  2.5 6 0  3 6 0  3.5 6 0  4 6 0  4.5 6 0  5 6 0  5.5 6 0  6 6 0  6.5 6 0  7 6 0  7.5 6 0  8 6 0  8.5 6 0  9 6 0  9.5 6 0  10 6 0  10.5 6 0  11 6 0  11.5 6 0  12 6 0  12.5 6 0  13 6 0  13.5 6 0  14 6 0  14.5 6 0  15 6 0  15.5 6 0  16 6 0  16.5 6 0  17 6 0  17.5 6 0  18 6 0  18.5 6 0  19 6 0  19.5 6 0  20 6 0  0 6.5 0  0.5 6.5 0  1 6.5 0  1.5 6.5 0  2 6.5 0  2.5 6.5 0  3 6.5 0  3.5 6.5 0  4 6.5 0  4.5 6.5 0  5 6.5 0  5.5 6.5 0  6 6.5 0  6.5 6.5 0  7 6.5 0  7.5 6.5 0  8 6.5 0  8.5 6.5 0  9 6.5 0  9.5 6.5 0  10 6.5 0  10.5 6.5 0  11 6.5 0  11.5 6.5 0  12 6.5 0  12.5 6.5 0  13 6.5 0  13.5 6.5 0  14 6.5 0  14.5 6.5 0  15 6.5 0  15.5 6.5 0  16 6.5 0  16.5 6.5 0  17 6.5 0  17.5 6.5 0  18 6.5 0  18.5 6.5 0  19 6.5 0  19.5 6.5 0  20 6.5 0  0 7 0  0.5 7 0  1 7 0  1.5 7 0  2 7 0  2.5 7 0  3 7 0  3.5 7 0  4 7 0  4.5 7 0  5 7 0  5.5 7 0  6 7 0  6.5 7 0  7 7 0  7.5 7 0  8 7 0  8.5 7 0  9 7 0  9.5 7 0  10 7 0  10.5 7 0  11 7 0  11.5 7 0  12 7 0  12.5 7 0  13 7 0  13.5 7 0  14 7 0  14.5 7 0  15 7 0  15.5 7 0  16 7 0  16.5 7 0  17 7 0  17.5 7 0  18 7 0  18.5 7 0  19 7 0  19.5 7 0  20 7 0  0 7.5 0  0.5 7.5 0  1 7.5 0  1.5 7.5 0  2 7.5 0  2.5 7.5 0  3 7.5 0  3.5 7.5 0  4 7.5 0  4.5 7.5 0  5 7.5 0  5.5 7.5 0  6 7.5 0  6.5 7.5 0  7 7.5 0  7.5 7.5 0  8 7.5 0  8.5 7.5 0  9 7.5 0  9.5 7.5 0  10 7.5 0  10.5 7.5 0  11 7.5 0  11.5 7.5 0  12 7.5 0  12.5 7.5 0  13 7.5 0  13.5 7.5 0  14 7.5 0  14.5 7.5 0  15 7.5 0  15.5 7.5 0  16 7.5 0  16.5 7.5 0  17 7.5 0  17.5 7.5 0  18 7.5 0  18.5 7.5 0  19 7.5 0  19.5 7.5 0  20 7.5 0  0 8 0  0.5 8 0  1 8 0  1.5 8 0  2 8 0  2.5 8 0  3 8 0  3.5 8 0  4 8 0  4.5 8 0  5 8 0  5.5 8 0  6 8 0  6.5 8 0  7 8 0  7.5 8 0  8 8 0  8.5 8 0  9 8 0  9.5 8 0  10 8 0  10.5 8 0  11 8 0  11.5 8 0  12 8 0  12.5 8 0  13 8 0  13.5 8 0  14 8 0  14.5 8 0  15 8 0  15.5 8 0  16 8 0  16.5 8 0  17 8 0  17.5 8 0  18 8 0  18.5 8 0  19 8 0  19.5 8 0  20 8 0  0 8.5 0  0.5 8.5 0  1 8.5 0  1.5 8.5 0  2 8.5 0  2.5 8.5 0  3 8.5 0  3.5 8.5 0  4 8.5 0  4.5 8.5 0  5 8.5 0  5.5 8.5 0  6 8.5 0  6.5 8.5 0  7 8.5 0  7.5 8.5 0  8 8.5 0  8.5 8.5 0  9 8.5 0  9.5 8.5 0  10 8.5 0  10.5 8.5 0  11 8.5 0  11.5 8.5 0  12 8.5 0  12.5 8.5 0  13 8.5 0  13.5 8.5 0  14 8.5 0  14.5 8.5 0  15 8.5 0  15.5 8.5 0  16 8.5 0  16.5 8.5 0  17 8.5 0  17.5 8.5 0  18 8.5 0  18.5 8.5 0  19 8.5 0  19.5 8.5 0  20 8.5 0  0 9 0  0.5 9 0  1 9 0  1.5 9 0  2 9 0  2.5 9 0  3 9 0  3.5 9 0  4 9 0  4.5 9 0  5 9 0  5.5 9 0  6 9 0  6.5 9 0  7 9 0  7.5 9 0  8 9 0  8.5 9 0  9 9 0  9.5 9 0  10 9 0  10.5 9 0  11 9 0  11.5 9 0  12 9 0  12.5 9 0  13 9 0  13.5 9 0  14 9 0  14.5 9 0  15 9 0  15.5 9 0  16 9 0  16.5 9 0  17 9 0  17.5 9 0  18 9 0  18.5 9 0  19 9 0  19.5 9 0  20 9 0  0 9.5 0  0.5 9.5 0  1 9.5 0  1.5 9.5 0  2 9.5 0  2.5 9.5 0  3 9.5 0  3.5 9.5 0  4 9.5 0  4.5 9.5 0  5 9.5 0  5.5 9.5 0  6 9.5 0  6.5 9.5 0  7 9.5 0  7.5 9.5 0  8 9.5 0  8.5 9.5 0  9 9.5 0  9.5 9.5 0  10 9.5 0  10.5 9.5 0  11 9.5 0  11.5 9.5 0  12 9.5 0  12.5 9.5 0  13 9.5 0  13.5 9.5 0  14 9.5 0  14.5 9.5 0  15 9.5 0  15.5 9.5 0  16 9.5 0  16.5 9.5 0  17 9.5 0  17.5 9.5 0  18 9.5 0  18.5 9.5 0  19 9.5 0  19.5 9.5 0  20 9.5 0  0 10 0  0.5 10 0  1 10 0  1.5 10 0  2 10 0  2.5 10 0  3 10 0  3.5 10 0  4 10 0  4.5 10 0  5 10 0  5.5 10 0  6 10 0  6.5 10 0  7 10 0  7.5 10 0  8 10 0  8.5 10 0  9 10 0  9.5 10 0  10 10 0  10.5 10 0  11 10 0  11.5 10 0  12 10 0  12.5 10 0  13 10 0  13.5 10 0  14 10 0  14.5 10 0  15 10 0  15.5 10 0  16 10 0  16.5 10 0  17 10 0  17.5 10 0  18 10 0  18.5 10 0  19 10 0  19.5 10 0  20 10 0  0 10.5 0  0.5 10.5 0  1 10.5 0  1.5 10.5 0  2 10.5 0  2.5 10.5 0  3 10.5 0  3.5 10.5 0  4 10.5 0  4.5 10.5 0  5 10.5 0  5.5 10.5 0  6 10.5 0  6.5 10.5 0  7 10.5 0  7.5 10.5 0  8 10.5 0  8.5 10.5 0  9 10.5 0  9.5 10.5 0  10 10.5 0  10.5 10.5 0  11 10.5 0  11.5 10.5 0  12 10.5 0  12.5 10.5 0  13 10.5 0  13.5 10.5 0  14 10.5 0  14.5 10.5 0  15 10.5 0  15.5 10.5 0  16 10.5 0  16.5 10.5 0  17 10.5 0  17.5 10.5 0  18 10.5 0  18.5 10.5 0  19 10.5 0  19.5 10.5 0  20 10.5 0  0 11 0  0.5 11 0  1 11 0  1.5 11 0  2 11 0  2.5 11 0  3 11 0  3.5 11 0  4 11 0  4.5 11 0  5 11 0  5.5 11 0  6 11 0  6.5 11 0  7 11 0  7.5 11 0  8 11 0  8.5 11 0  9 11 0  9.5 11 0  10 11 0  10.5 11 0  11 11 0  11.5 11 0  12 11 0  12.5 11 0  13 11 0  13.5 11 0  14 11 0  14.5 11 0  15 11 0  15.5 11 0  16 11 0  16.5 11 0  17 11 0  17.5 11 0  18 11 0  18.5 11 0  19 11 0  19.5 11 0  20 11 0  0 11.5 0  0.5 11.5 0  1 11.5 0  1.5 11.5 0  2 11.5 0  2.5 11.5 0  3 11.5 0  3.5 11.5 0  4 11.5 0  4.5 11.5 0  5 11.5 0  5.5 11.5 0  6 11.5 0  6.5 11.5 0  7 11.5 0  7.5 11.5 0  8 11.5 0  8.5 11.5 0  9 11.5 0  9.5 11.5 0  10 11.5 0  10.5 11.5 0  11 11.5 0  11.5 11.5 0  12 11.5 0  12.5 11.5 0  13 11.5 0  13.5 11.5 0  14 11.5 0  14.5 11.5 0  15 11.5 0  15.5 11.5 0  16 11.5 0  16.5 11.5 0  17 11.5 0  17.5 11.5 0  18 11.5 0  18.5 11.5 0  19 11.5 0  19.5 11.5 0  20 11.5 0  0 12 0  0.5 12 0  1 12 0  1.5 12 0  2 12 0  2.5 12 0  3 12 0  3.5 12 0  4 12 0  4.5 12 0  5 12 0  5.5 12 0  6 12 0  6.5 12 0  7 12 0  7.5 12 0  8 12 0  8.5 12 0  9 12 0  9.5 12 0  10 12 0  10.5 12 0  11 12 0  11.5 12 0  12 12 0  12.5 12 0  13 12 0  13.5 12 0  14 12 0  14.5 12 0  
[...]
<PointData  Vectors="f_2975-0"> 
<DataArray  type="Float64"  Name="f_2975-0"  NumberOfComponents="3" format="ascii">0.0000000000000000e+00 0.0000000000000000e+00 0.0000000000000000e+00  3.4334370079184608e-06 0.0000000000000000e+00 0.0000000000000000e+00  4.6987874582070015e-07 0.0000000000000000e+00 0.0000000000000000e+00  -1.8789687560827438e-05 0.0000000000000000e+00 0.0000000000000000e+00  -6.2414041430244383e-05 0.0000000000000000e+00 0.0000000000000000e+00  -1.3810143723851093e-04 0.0000000000000000e+00 0.0000000000000000e+00  -2.5319276726873017e-04 0.0000000000000000e+00 0.0000000000000000e+00  -4.1456136966678690e-04 0.0000000000000000e+00 0.0000000000000000e+00  -6.2848093486257510e-04 0.0000000000000000e+00 0.0000000000000000e+00  -9.0047337562531259e-04 0.0000000000000000e+00 0.0000000000000000e+00  -1.2351316954312508e-03 0.0000000000000000e+00 0.0000000000000000e+00  -1.6359125645971073e-03 0.0000000000000000e+00 0.0000000000000000e+00  -2.1048930157715954e-03 0.0000000000000000e+00 0.0000000000000000e+00  -2.6424852008292430e-03 0.0000000000000000e+00 0.0000000000000000e+00  -3.2471026147879098e-03 0.0000000000000000e+00 0.0000000000000000e+00  -3.9147706332608766e-03 0.0000000000000000e+00 0.0000000000000000e+00  -4.6386736390857117e-03 0.0000000000000000e+00 0.0000000000000000e+00  -5.4086304265531862e-03 0.0000000000000000e+00 0.0000000000000000e+00  -6.2104889499047349e-03 0.0000000000000000e+00 0.0000000000000000e+00  -7.0254307871061407e-03 0.0000000000000000e+00 0.0000000000000000e+00  -7.8291748569847535e-03 0.0000000000000000e+00 0.0000000000000000e+00  -8.5910688567663405e-03 0.0000000000000000e+00 0.0000000000000000e+00  -9.2730554326967956e-03 0.0000000000000000e+00 0.0000000000000000e+00  -9.8284980538252929e-03 0.0000000000000000e+00 0.0000000000000000e+00  -1.0200848646766467e-02 0.0000000000000000e+00 0.0000000000000000e+00  -1.0322134888062188e-02 0.0000000000000000e+00 0.0000000000000000e+00  -1.0111239130518196e-02 0.0000000000000000e+00 0.0000000000000000e+00  -9.4719325731504270e-03 0.0000000000000000e+00 0.0000000000000000e+00  -8.2906165343483995e-03 0.0000000000000000e+00 0.0000000000000000e+00  -6.4337062554679922e-03 0.0000000000000000e+00 0.0000000000000000e+00  -3.7445696982191970e-03 0.0000000000000000e+00 0.0000000000000000e+00  -3.9901601708442325e-05 0.0000000000000000e+00 0.0000000000000000e+00  4.8946324553158114e-03 0.0000000000000000e+00 0.0000000000000000e+00  1.1309712488781208e-02 0.0000000000000000e+00 0.0000000000000000e+00  1.9498966997050539e-02 0.0000000000000000e+00 0.0000000000000000e+00  2.9807332159065950e-02 0.0000000000000000e+00 0.0000000000000000e+00  4.2641864926151699e-02 0.0000000000000000e+00 0.0000000000000000e+00  5.8486103906384729e-02 0.0000000000000000e+00 0.0000000000000000e+00  7.7919926748208440e-02 0.0000000000000000e+00 0.0000000000000000e+00  1.0164958402093553e-01 0.0000000000000000e+00 0.0000000000000000e+00  1.3056281467046868e-01 0.0000000000000000e+00 0.0000000000000000e+00  0.0000000000000000e+00 3.4334370054391992e-06 0.0000000000000000e+00  9.4178216472690026e-06 9.4178216466593591e-06 0.0000000000000000e+00  1.0342238754707943e-05 2.3478120569297071e-05 0.0000000000000000e+00  -4.7774231056842803e-06 4.5711311477835864e-05 0.0000000000000000e+00  -4.4099232872765267e-05 7.6393470445530837e-05 0.0000000000000000e+00  -1.1542260919880587e-04 1.1555318823062770e-04 0.0000000000000000e+00  -2.2613090695334560e-04 1.6307913250566649e-04 0.0000000000000000e+00  -3.8311662350034301e-04 2.1878284101472154e-04 0.0000000000000000e+00  -5.9266509655702218e-04 2.8242024513817796e-04 0.0000000000000000e+00  -8.6030810004778999e-04 3.5369689709700136e-04 0.0000000000000000e+00  -1.1906489029006226e-03 4.3226752407966661e-04 0.0000000000000000e+00  -1.5871557967714071e-03 5.1773357755419537e-04 0.0000000000000000e+00  -2.0519192622690608e-03 6.0964002373259992e-04 0.0000000000000000e+00  -2.5853669754571668e-03 7.0747184978524986e-04 0.0000000000000000e+00  -3.1859301550246767e-03 8.1065052239156176e-04 0.0000000000000000e+00  -3.8496541314649679e-03 9.1853056442941215e-04 0.0000000000000000e+00  -4.5697454245433363e-03 1.0303963991979046e-03 0.0000000000000000e+00  -5.3360470173079051e-03 1.1454596145543991e-03 0.0000000000000000e+00  -6.1344328871616085e-03 1.2628568081225881e-03 0.0000000000000000e+00  -6.9461121562391977e-03 1.3816481855132446e-03 0.0000000000000000e+00  -7.7468323882986054e-03 1.5008170931187848e-03 0.0000000000000000e+00  -8.5059704874916528e-03 1.6192706742420751e-03 0.0000000000000000e+00  -9.1854981996148891e-03 1.7358418404250040e-03 0.0000000000000000e+00  -9.7388071735141166e-03 1.8492927473918513e-03 0.0000000000000000e+00  -1.0109375628111279e-02 1.9583199550308266e-03 0.0000000000000000e+00  -1.0229254509125979e-02 2.0615614312841099e-03 0.0000000000000000e+00  -1.0017345097669762e-02 2.1576055278039207e-03 0.0000000000000000e+00  -9.3774316618688777e-03 2.2450020072336168e-03 0.0000000000000000e+00  -8.1959209830753024e-03 2.3222751346262446e-03 0.0000000000000000e+00  -6.3392241369410697e-03 2.3879387545525902e-03 0.0000000000000000e+00  -3.6506929171977536e-03 2.4405131579850947e-03 0.0000000000000000e+00  5.3008938628246320e-05 2.4785433962885503e-03 0.0000000000000000e+00  4.9862650692795128e-03 2.5006185144378886e-03 0.0000000000000000e+00  1.1399826726222421e-02 2.5053909195006442e-03 0.0000000000000000e+00  1.9587418740569108e-02 2.4915946920868928e-03 0.0000000000000000e+00  2.9894096043788447e-02 2.4580610390467082e-03 0.0000000000000000e+00  4.2727028073694100e-02 2.4037291746531438e-03 0.0000000000000000e+00  5.8569718307793256e-02 2.3276583880183729e-03 0.0000000000000000e+00  7.8001174421977626e-02 2.2290932396173391e-03 0.0000000000000000e+00  1.0172211232913980e-01 2.1078273088270959e-03 0.0000000000000000e+00  1.3058838857170527e-01 1.9655670547137211e-03 0.0000000000000000e+00  0.0000000000000000e+00 4.6987874104848481e-07 0.0000000000000000e+00  2.3478120571374250e-05 1.0342238755962406e-05 0.0000000000000000e+00  3.7718993557600010e-05 3.7718993557337091e-05 0.0000000000000000e+00  3.5702913725349023e-05 8.2244920650037970e-05 0.0000000000000000e+00  9.4791003520787131e-06 1.4384647766570302e-04 0.0000000000000000e+00  -4.8714280169180209e-05 2.2237836445051224e-04 0.0000000000000000e+00  -1.4627393281354127e-04 3.1758892553257690e-04 0.0000000000000000e+00  -2.9011478754685012e-04 4.2911553405059247e-04 0.0000000000000000e+00  -4.8654591844009721e-04 5.5648861025801724e-04 0.0000000000000000e+00  -7.4112444328148391e-04 6.9913419408907155e-04 0.0000000000000000e+00  -1.0584820848917030e-03 8.5637301859203569e-04 0.0000000000000000e+00  -1.4421199952722871e-03 1.0274168007163226e-03 0.0000000000000000e+00  -1.8941668429712955e-03 1.2113627964933846e-03 0.0000000000000000e+00  -2.4150944213605996e-03 1.4071874255265407e-03 0.0000000000000000e+00  -3.0033843408452761e-03 1.6137395325427392e-03 0.0000000000000000e+00  -3.6551387214022275e-03 1.8297337145896726e-03 0.0000000000000000e+00  -4.3636271833672078e-03 2.0537440787036995e-03 0.0000000000000000e+00  -5.1187618211821443e-03 2.2841987760425517e-03 0.0000000000000000e+00  -5.9064912085206207e-03 2.5193756612360814e-03 0.0000000000000000e+00  -6.7081037805481539e-03 2.7573994391775773e-03 0.0000000000000000e+00  -7.4994301027385257e-03 2.9962406762667226e-03 0.0000000000000000e+00  -8.2499324647352934e-03 3.2337170658044093e-03 0.0000000000000000e+00  -8.9216687858361329e-03 3.4674973426053013e-03 0.0000000000000000e+00  -9.4681157805888844e-03 3.6951082372305615e-03 0.0000000000000000e+00  -9.8328334274338861e-03 3.9139448414126921e-03 0.0000000000000000e+00  -9.9479486303767229e-03 4.1212847196291924e-03 0.0000000000000000e+00  -9.7324300525696347e-03 4.3143060426933093e-03 0.0000000000000000e+00  -9.0901177422124529e-03 4.4901099333828362e-03 0.0000000000000000e+00  -7.9074594276318574e-03 4.6457470959886680e-03 0.0000000000000000e+00  -6.0508889290950447e-03 4.7782486468735275e-03 0.0000000000000000e+00  -3.3637591824570512e-03 4.8846608671624572e-03 0.0000000000000000e+00  3.3728977003273083e-04 4.9620833573822444e-03 0.0000000000000000e+00  5.2666927502730641e-03 5.0077097831547771e-03 0.0000000000000000e+00  1.1675280758776000e-02 5.0188700611189215e-03 0.0000000000000000e+00  1.9856884035007859e-02 4.9930724963486439e-03 0.0000000000000000e+00  3.0156675839160263e-02 4.9280442867314818e-03 0.0000000000000000e+00  4.2981920556002903e-02 4.8217694727992772e-03 0.0000000000000000e+00  5.8816103052276962e-02 4.6725233725352358e-03 0.0000000000000000e+00  7.8237901390965092e-02 4.4788799355857251e-03 0.0000000000000000e+00  1.0194718220418163e-01 4.2394836945486084e-03 0.0000000000000000e+00  1.3080130682213625e-01 3.9513135243746007e-03 0.0000000000000000e+00  0.0000000000000000e+00 -1.8789687561389756e-05 0.0000000000000000e+00  4.5711311479154430e-05 -4.7774231067888866e-06 0.0000000000000000e+00  8.2244920652676593e-05 3.5702913725249812e-05 0.0000000000000000e+00  1.0226905203529714e-04 1.0226905202983033e-04 0.0000000000000000e+00  9.8004613373298759e-05 1.9465224826485664e-04 0.0000000000000000e+00  6.1743780909627268e-05 3.1253249919458700e-04 0.0000000000000000e+00  -1.3899155525485292e-05 4.5547301425045658e-04 0.0000000000000000e+00  -1.3584979930743871e-04 6.2290532518522249e-04 0.0000000000000000e+00  -3.1044106769025532e-04 8.1412173959778612e-04 0.0000000000000000e+00  -5.4326378025118288e-04 1.0282684116458337e-03 0.0000000000000000e+00  -8.3899239856731033e-04 1.2643378887384612e-03 0.0000000000000000e+00  -1.2011800579784591e-03 1.5211607312194371e-03 0.0000000000000000e+00  -1.6320171827008949e-03 1.7973961976677840e-03 0.0000000000000000e+00  -2.1320476155806669e-03 2.0915222506296487e-03 0.0000000000000000e+00  -2.6998356739964171e-03 2.4018252692202939e-03 0.0000000000000000e+00  -3.3315769720382942e-03 2.7263899127494412e-03 0.0000000000000000e+00  -4.0206452596608612e-03 3.0630896079259502e-03 0.0000000000000000e+00  -4.7570669265734585e-03 3.4095781562953746e-03 0.0000000000000000e+00  -5.5269141852463954e-03 3.7632829838616256e-03 0.0000000000000000e+00  -6.3116072461541642e-03 4.1214005829300219e-03 0.0000000000000000e+00  -7.0871149641754290e-03 4.4808947219121915e-03 0.0000000000000000e+00  -7.8230423684558861e-03 4.8384980194459007e-03 0.0000000000000000e+00  -8.4815920425604756e-03 5.1907174885266853e-03 0.0000000000000000e+00  -9.0163842932509432e-03 5.5338446508644617e-03 0.0000000000000000e+00  -9.3711181534280336e-03 5.8639707946264589e-03 0.0000000000000000e+00  -9.4780511280427755e-03 6.1770078957207424e-03 0.0000000000000000e+00  -9.2562697008320757e-03 6.4687156363927838e-03 0.0000000000000000e+00  -8.6097142859680419e-03 6.7347348286950397e-03 0.0000000000000000e+00  -7.4249105947980362e-03 6.9706273764169316e-03 0.0000000000000000e+00  -5.5683429970460547e-03 7.1719226779456682e-03 0.0000000000000000e+00  -2.8833825574297719e-03 7.3341700744743712e-03 0.0000000000000000e+00  8.1334962234512356e-04 7.4529965676488966e-03 0.0000000000000000e+00  5.7363482474670924e-03 7.5241685460688207e-03 0.0000000000000000e+00  1.2136547503742681e-02 7.5436556167529411e-03 0.0000000000000000e+00  2.0307923706779966e-02 7.5076936758012710e-03 0.0000000000000000e+00  3.0595833891169207e-02 7.4128424520857649e-03 0.0000000000000000e+00  4.3407750972976680e-02 7.2560274389562619e-03 0.0000000000000000e+00  5.9227367486943690e-02 7.0345382196677249e-03 0.0000000000000000e+00  7.8633517312230852e-02 6.7458964543718799e-03 0.0000000000000000e+00  1.0232606910809902e-01 6.3873458225745944e-03 0.0000000000000000e+00  1.3116196679290332e-01 5.9544250978531138e-03 0.0000000000000000e+00  0.0000000000000000e+00 -6.2414041433308555e-05 0.0000000000000000e+00  7.6393470441173984e-05 -4.4099232874109094e-05 0.0000000000000000e+00  1.4384647766520952e-04 9.4791003511929995e-06 0.0000000000000000e+00  1.9465224826396539e-04 9.8004613368263941e-05 0.0000000000000000e+00  2.2108966002941735e-04 2.2108966002541577e-04 0.0000000000000000e+00  2.1549183729266952e-04 3.7826669116395976e-04 0.0000000000000000e+00  1.7048165193465204e-04 5.6892833985027998e-04 0.0000000000000000e+00  7.9121666844892080e-05 7.9230529498705571e-04 0.0000000000000000e+00  -6.4948230344146699e-05 1.0474533413914171e-03 0.0000000000000000e+00  -2.6735998839693499e-04 1.3332417010022441e-03 0.0000000000000000e+00  -5.3284295289543059e-04 1.6483407563779287e-03 0.0000000000000000e+00  -8.6501921723900702e-04 1.9912088888991552e-03 0.0000000000000000e+00  -1.2661627408189608e-03 2.3600785692690159e-03 0.0000000000000000e+00  -1.7369159727016489e-03 2.7529419740144187e-03 0.0000000000000000e+00  -2.2759572547602224e-03 3.1675364964857526e-03 0.0000000000000000e+00  -2.8796117401462102e-03 3.6013306080855288e-03 0.0000000000000000e+00  -3.5413979949872432e-03 4.0515106031966761e-03 0.0000000000000000e+00  -4.2515018613802765e-03 4.5149688309394963e-03 0.0000000000000000e+00  -4.9961685346618387e-03 4.9882940787681733e-03 0.0000000000000000e+00  -5.7570031131041295e-03 5.4677648282394926e-03 0.0000000000000000e+00  -6.5101690504933184e-03 5.9493461496017020e-03 0.0000000000000000e+00  -7.2254728831169313e-03 6.4286910372252943e-03 0.0000000000000000e+00  -7.8653221683971410e-03 6.9011470062586740e-03 0.0000000000000000e+00  -8.3835415580747179e-03 7.3617687679949934e-03 0.0000000000000000e+00  -8.7240290548206544e-03 7.8053377695244249e-03 0.0000000000000000e+00  -8.8192303882816073e-03 8.2263893154965757e-03 0.0000000000000000e+00  -8.5884035848711876e-03 8.6192478768082996e-03 0.0000000000000000e+00  -7.9356375070779948e-03 8.9780710237724413e-03 0.0000000000000000e+00  -6.7475764665797921e-03 9.2969021865569289e-03 0.0000000000000000e+00  -4.8907866744455301e-03 9.5697321295934515e-03 0.0000000000000000e+00  -2.2086774542914240e-03 9.7905686080386484e-03 0.0000000000000000e+00  1.4821418273535175e-03 9.9535131206893758e-03 0.0000000000000000e+00  6.3962331667658393e-03 1.0052842922923730e-02 0.0000000000000000e+00  1.2784657686879366e-02 1.0083095365494942e-02 0.0000000000000000e+00  2.0941579938369013e-02 1.0039149788934715e-02 0.0000000000000000e+00  3.1212603907456275e-02 9.9162985749427016e-03 0.0000000000000000e+00  4.4005497067157402e-02 9.7102909314788835e-03 0.0000000000000000e+00  5.9804262423013080e-02 9.4173154013611621e-03 0.0000000000000000e+00  7.9187977202975227e-02 9.0338554798189263e-03 0.0000000000000000e+00  1.0285650450257877e-01 8.5563299638041386e-03 0.0000000000000000e+00  1.3166625386358274e-01 7.9805674204474868e-03 0.0000000000000000e+00  0.0000000000000000e+00 -1.3810143723670936e-04 0.0000000000000000e+00  1.1555318823200382e-04 -1.1542260919949762e-04 0.0000000000000000e+00  2.2237836445169220e-04 -4.8714280176611798e-05 0.0000000000000000e+00  3.1253249919987357e-04 6.1743780903666013e-05 0.0000000000000000e+00  3.7826669116235910e-04 2.1549183729084576e-04 0.0000000000000000e+00  4.1193648597278275e-04 4.1193648597845833e-04 0.0000000000000000e+00  4.0616866108643103e-04 6.5031502650739756e-04 0.0000000000000000e+00  3.5401033330113781e-04 9.2967054997366400e-04 0.0000000000000000e+00  2.4906868803611091e-04 1.2488347560935889e-03 0.0000000000000000e+00  8.5662287107978201e-05 1.6064122486091855e-03 0.0000000000000000e+00  -1.4100501075283705e-04 2.0007641979353365e-03 0.0000000000000000e+00  -4.3464026862492523e-04 2.4299909323942165e-03 0.0000000000000000e+00  -7.9762148219546898e-04 2.8919135921584766e-03 0.0000000000000000e+00  -1.2307149564383330e-03 3.3840551992360209e-03 0.0000000000000000e+00  -1.7327432141075255e-03 3.9036216099871041e-03 0.0000000000000000e+00  -2.3001960816807659e-03 4.4474829052984768e-03 0.0000000000000000e+00  -2.9267770360347843e-03 5.0121558594127952e-03 0.0000000000000000e+00  -3.6028763083957847e-03 5.5937882138762177e-03 0.0000000000000000e+00  -4.3149616203021447e-03 6.1881455669104022e-03 0.0000000000000000e+00  -5.0448767359770885e-03 6.7906017663335620e-03 0.0000000000000000e+00  -5.7690371946640309e-03 7.3961337619239181e-03 0.0000000000000000e+00  -6.4575115375641191e-03 7.9993219264797768e-03 0.0000000000000000e+00  -7.0729749235214643e-03 8.5943568867996381e-03 0.0000000000000000e+00  -7.5695200319975502e-03 9.1750539103037342e-03 0.0000000000000000e+00  -7.8913073025726286e-03 9.7348758610834238e-03 0.0000000000000000e+00  -7.9710324785385017e-03 1.0266965661355711e-02 0.0000000000000000e+00  -7.7281835990919319e-03 1.0764189059579038e-02 0.0000000000000000e+00  -7.0670513338405971e-03 1.1219188301703211e-02 0.0000000000000000e+00  -5.8744449378425288e-03 1.1624447010588531e-02 0.0000000000000000e+00  -4.0170498313892612e-03 1.1972366180039169e-02 0.0000000000000000e+00  -1.3383400500167194e-03 1.2255350653693689e-02 0.0000000000000000e+00  2.3450730627770935e-03 1.2465904738501595e-02 0.0000000000000000e+00  7.2478194125507800e-03 1.2596734611622277e-02 0.0000000000000000e+00  1.3621103166609924e-02 1.2640853746551368e-02 0.0000000000000000e+00  2.1759309030488398e-02 1.2591685350389360e-02 0.0000000000000000e+00  3.2008334287860887e-02 1.2443152100457797e-02 0.0000000000000000e+00  4.4776297403636228e-02 1.2189737409433837e-02 0.0000000000000000e+00  6.0547572871604304e-02 1.1826494414936248e-02 0.0000000000000000e+00  7.9901560767914076e-02 1.1348976667139618e-02 0.0000000000000000e+00  1.0353832848193623e-01 1.0753099244679893e-02 0.0000000000000000e+00  1.3231451141499728e-01 1.0035085871526335e-02 0.0000000000000000e+00  0.0000000000000000e+00 -2.5319276726805883e-04 0.0000000000000000e+00  1.6307913250699474e-04 -2.2613090695703327e-04 0.0000000000000000e+00  3.1758892553511642e-04 -1.4627393281456985e-04 0.0000000000000000e+00  4.5547301424776358e-04 -1.3899155528867659e-05 0.0000000000000000e+00  5.6892833984359870e-04 1.7048165193436871e-04 0.0000000000000000e+00  6.5031502650459035e-04 4.0616866108640057e-04 0.0000000000000000e+00  6.9225915641184374e-04 6.9225915641247322e-04 0.0000000000000000e+00  6.8778970657627249e-04 1.0276238102872805e-03 0.0000000000000000e+00  6.3047679217292788e-04 1.4108863563313076e-03 0.0000000000000000e+00  5.1458222797106702e-04 1.8404040612856509e-03 0.0000000000000000e+00  3.3523230866960255e-04 2.3142473568840533e-03 0.0000000000000000e+00  8.8620250207730079e-05 2.8301781729649978e-03 0.0000000000000000e+00  -2.2775512329600197e-04 3.3856270884734716e-03 0.0000000000000000e+00  -6.1480785444307487e-04 3.9776696866582291e-03 0.0000000000000000e+00  -1.0715335346647798e-03 4.6030026537088259e-03 0.0000000000000000e+00  -1.5946207383496372e-03 5.2579202751086669e-03 0.0000000000000000e+00  -2.1779971976726318e-03 5.9382920889360525e-03 0.0000000000000000e+00  -2.8123021209935169e-03 6.6395425584813454e-03 0.0000000000000000e+00  -3.4842754364894520e-03 7.3566337292285703e-03 0.0000000000000000e+00  -4.1760540547038554e-03 8.0840519332892047e-03 0.0000000000000000e+00  -4.8643644286161906e-03 8.8157996929575273e-03 0.0000000000000000e+00  -5.5195996512076833e-03 9.5453940483941641e-03 0.0000000000000000e+00  -6.1047679255822555e-03 1.0265872583349402e-02 0.0000000000000000e+00  -6.5742972692925594e-03 1.0969808440339091e-02 0.0000000000000000e+00  -6.8726784948505990e-03 1.1649335590637336e-02 0.0000000000000000e+00  -6.9329244649430173e-03 1.2296185544471315e-02 0.0000000000000000e+00  -6.6748178465761707e-03 1.2901736538300547e-02 0.0000000000000000e+00  -6.0029113969986047e-03 1.3457076003606107e-02 0.0000000000000000e+00  -4.8042332716061653e-03 1.3953076784820280e-02 0.0000000000000000e+00  -2.9456336565456226e-03 1.4380487108357334e-02 0.0000000000000000e+00  -2.7068637359352636e-04 1.4730033674990348e-02 0.0000000000000000e+00  3.4039726394131083e-03 1.4992536405883635e-02 0.0000000000000000e+00  8.2930327563303981e-03 1.5159032243904920e-02 0.0000000000000000e+00  1.4647848206304456e-02 1.5220903885307249e-02 0.0000000000000000e+00  2.2763047023767125e-02 1.5170007243002390e-02 0.0000000000000000e+00  3.2984859514789175e-02 1.4998788