<?xml version="1.0"?>
<VTKFile type="UnstructuredGrid"  version="0.1"  >
<UnstructuredGrid>
<Piece  NumberOfPoints="1681" NumberOfCells="3200">
<Points>
<DataArray  type="Float64"  NumberOfComponents="3"  format="ascii">0 0 0  0.5 0 0  1 0 0  1.5 0 0  2 0 0  2.5 0 0  3 0 0  3.5 0 0  4 0 0  4.5 0 0  5 0 0  5.5 0 0  6 0 0  6.5 0 0  7 0 0  7.5 0 0  8 0 0  8.5 0 0  9 0 0  9.5 0 0  10 0 0  10.5 0 0  11 0 0  11.5 0 0  12 0 0  12.5 0 0  13 0 0  13.5 0 0  14 0 0  14.5 0 0  15 0 0  15.5 0 0  16 0 0  16.5 0 0  17 0 0  17.5 0 0  18 0 0  18.5 0 0  19 0 0  19.5 0 0  20 0 0  0 0.5 0  0.5 0.5 0  1 0.5 0  1.5 0.5 0  2 0.5 0  2.5 0.5 0  3 0.5 0  3.5 0.5 0  4 0.5 0  4.5 0.5 0  5 0.5 0  5.5 0.5 0  6 0.5 0  6.5 0.5 0  7 0.5 0  7.5 0.5 0  8 0.5 0  8.5 0.5 0  9 0.5 0  9.5 0.5 0  10 0.5 0  10.5 0.5 0  11 0.5 0  11.5 0.5 0  12 0.5 0  12.5 0.5 0  13 0.5 0  13.5 0.5 0  14 0.5 0  14.5 0.5 0  15 0.5 0  15.5 0.5 0  16 0.5 0  16.5 0.5 0  17 0.5 0  17.5 0.5 0  18 0.5 0  18.5 0.5 0  19 0.5 0  19.5 0.5 0  20 0.5 0  0 1 0  0.5 1 0  1 1 0  1.5 1 0  2 1 0  2.5 1 0  3 1 0  3.5 1 0  4 1 0  4.5 1 0  5 1 0  5.5 1 0  6 1 0  6.5 1 0  7 1 0  7.5 1 0  8 1 0  8.5 1 0  9 1 0  9.5 1 0  10 1 0  10.5 1 0  11 1 0  11.5 1 0  12 1 0  12.5 1 0  13 1 0  13.5 1 0  14 1 0  14.5 1 0  15 1 0  15.5 1 0  16 1 0  16.5 1 0  17 1 0  17.5 1 0  18 1 0  18.5 1 0  19 1 0  19.5 1 0  20 1 0  0 1.5 0  0.5 1.5 0  1 1.5 0  1.5 1.5 0  2 1.5 0  2.5 1.5 0  3 1.5 0  3.5 1.5 0  4 1.5 0  4.5 1.5 0  5 1.5 0  5.5 1.5 0  6 1.5 0  6.5 1.5 0  7 1.5 0  7.5 1.5 0  8 1.5 0  8.5 1.5 0  9 1.5 0  9.5 1.5 0  10 1.5 0  10.5 1.5 0  11 1.5 0  11.5 1.5 0  12 1.5 0  12.5 1.5 0  13 1.5 0  13.5 1.5 0  14 1.5 0  14.5 1.5 0  15 1.5 0  15.5 1.5 0  16 1.5 0  16.5 1.5 0  17 1.5 0  17.5 1.5 0  18 1.5 0  18.5 1.5 0  19 1.5 0  19.5 1.5 0  20 1.5 0  0 2 0  0.5 2 0  1 2 0  1.5 2 0  2 2 0  2.5 2 0  3 2 0  3.5 2 0  4 2 0  4.5 2 0  5 2 0  5.5 2 0  6 2 0  6.5 2 0  7 2 0  7.5 2 0  8 2 0  8.5 2 0  9 2 0  9.5 2 0  10 2 0  10.5 2 0  11 2 0  11.5 2 0  12 2 0  12.5 2 0  13 2 0  13.5 2 0  14 2 0  14.5 2 0  15 2 0  15.5 2 0  16 2 0  16.5 2 0  17 2 0  17.5 2 0  18 2 0  18.5 2 0  19 2 0  19.5 2 0  20 2 0  0 2.5 0  0.5 2.5 0  1 2.5 0  1.5 2.5 0  2 2.5 0  2.5 2.5 0  3 2.5 0  3.5 2.5 0  4 2.5 0  4.5 2.5 0  5 2.5 0  5.5 2.5 0  6 2.5 0  6.5 2.5 0  7 2.5 0  7.5 2.5 0  8 2.5 0  8.5 2.5 0  9 2.5 0  9.5 2.5 0  10 2.5 0  10.5 2.5 0  11 2.5 0  11.5 2.5 0  12 2.5 0  12.5 2.5 0  13 2.5 0  13.5 2.5 0  14 2.5 0  14.5 2.5 0  15 2.5 0  15.5 2.5 0  16 2.5 0  16.5 2.5 0  17 2.5 0  17.5 2.5 0  18 2.5 0  18.5 2.5 0  19 2.5 0  19.5 2.5 0  20 2.5 0  0 3 0  0.5 3 0  1 3 0  1.5 3 0  2 3 0  2.5 3 0  3 3 0  3.5 3 0  4 3 0  4.5 3 0  5 3 0  5.5 3 0  6 3 0  6.5 3 0  7 3 0  7.5 3 0  8 3 0  8.5 3 0  9 3 0  9.5 3 0  10 3 0  10.5 3 0  11 3 0  11.5 3 0  12 3 0  12.5 3 0  13 3 0  13.5 3 0  14 3 0  14.5 3 0  15 3 0  15.5 3 0  16 3 0  16.5 3 0  17 3 0  17.5 3 0  18 3 0  18.5 3 0  19 3 0  19.5 3 0  20 3 0  0 3.5 0  0.5 3.5 0  1 3.5 0  1.5 3.5 0  2 3.5 0  2.5 3.5 0  3 3.5 0  3.5 3.5 0  4 3.5 0  4.5 3.5 0  5 3.5 0  5.5 3.5 0  6 3.5 0  6.5 3.5 0  7 3.5 0  7.5 3.5 0  8 3.5 0  8.5 3.5 0  9 3.5 0  9.5 3.5 0  10 3.5 0  10.5 3.5 0  11 3.5 0  11.5 3.5 0  12 3.5 0  12.5 3.5 0  13 3.5 0  13.5 3.5 0  14 3.5 0  14.5 3.5 0  15 3.5 0  15.5 3.5 0  16 3.5 0  16.5 3.5 0  17 3.5 0  17.5 3.5 0  18 3.5 0  18.5 3.5 0  19 3.5 0  19.5 3.5 0  20 3.5 0  0 4 0  0.5 4 0  1 4 0  1.5 4 0  2 4 0  2.5 4 0  3 4 0  3.5 4 0  4 4 0  4.5 4 0  5 4 0  5.5 4 0  6 4 0  6.5 4 0  7 4 0  7.5 4 0  8 4 0  8.5 4 0  9 4 0  9.5 4 0  10 4 0  10.5 4 0  11 4 0  11.5 4 0  12 4 0  12.5 4 0  13 4 0  13.5 4 0  14 4 0  14.5 4 0  15 4 0  15.5 4 0  16 4 0  16.5 4 0  17 4 0  17.5 4 0  18 4 0  18.5 4 0  19 4 0  19.5 4 0  20 4 0  0 4.5 0  0.5 4.5 0  1 4.5 0  1.5 4.5 0  2 4.5 0  2.5 4.5 0  3 4.5 0  3.5 4.5 0  4 4.5 0  4.5 4.5 0  5 4.5 0  5.5 4.5 0  6 4.5 0  6.5 4.5 0  7 4.5 0  7.5 4.5 0  8 4.5 0  8.5 4.5 0  9 4.5 0  9.5 4.5 0  10 4.5 0  10.5 4.5 0  11 4.5 0  11.5 4.5 0  12 4.5 0  12.5 4.5 0  13 4.5 0  13.5 4.5 0  14 4.5 0  14.5 4.5 0  15 4.5 0  15.5 4.5 0  16 4.5 0  16.5 4.5 0  17 4.5 0  17.5 4.5 0  18 4.5 0  18.5 4.5 0  19 4.5 0  19.5 4.5 0  20 4.5 0  0 5 0  0.5 5 0  1 5 0  1.5 5 0  2 5 0  2.5 5 0  3 5 0  3.5 5 0  4 5 0  4.5 5 0  5 5 0  5.5 5 0  6 5 0  6.5 5 0  7 5 0  7.5 5 0  8 5 0  8.5 5 0  9 5 0  9.5 5 0  10 5 0  10.5 5 0  11 5 0  11.5 5 0  12 5 0  12.5 5 0  13 5 0  13.5 5 0  14 5 0  14.5 5 0  15 5 0  15.5 5 0  16 5 0  16.5 5 0  17 5 0  17.5 5 0  18 5 0  18.5 5 0  19 5 0  19.5 5 0  20 5 0  0 5.5 0  0.5 5.5 0  1 5.5 0  1.5 5.5 0  2 5.5 0  2.5 5.5 0  3 5.5 0  3.5 5.5 0  4 5.5 0  4.5 5.5 0  5 5.5 0  5.5 5.5 0  6 5.5 0  6.5 5.5 0  7 5.5 0  7.5 5.5 0  8 5.5 0  8.5 5.5 0  9 5.5 0  9.5 5.5 0  10 5.5 0  10.5 5.5 0  11 5.5 0  11.5 5.5 0  12 5.5 0  12.5 5.5 0  13 5.5 0  13.5 5.5 0  14 5.5 0  14.5 5.5 0  15 5.5 0  15.5 5.5 0  16 5.5 0  16.5 5.5 0  17 5.5 0  17.5 5.5 0  18 5.5 0  18.5 5.5 0  19 5.5 0  19.5 5.5 0  20 5.5 0  0 6 0  0.5 6 0  1 6 0  1.5 6 0  2 6 0  2.5 6 0  3 6 0  3.5 6 0  4 6 0  4.5 6 0  5 6 0  5.5 6 0  6 6 0  6.5 6 0  7 6 0  7.5 6 0  8 6 0  8.5 6 0  9 6 0  9.5 6 0  10 6 0  10.5 6 0  11 6 0  11.5 6 0  12 6 0  12.5 6 0  13 6 0  13.5 6 0  14 6 0  14.5 6 0  15 6 0  15.5 6 0  16 6 0  16.5 6 0  17 6 0  17.5 6 0  18 6 0  18.5 6 0  19 6 0  19.5 6 0  20 6 0  0 6.5 0  0.5 6.5 0  1 6.5 0  1.5 6.5 0  2 6.5 0  2.5 6.5 0  3 6.5 0  3.5 6.5 0  4 6.5 0  4.5 6.5 0  5 6.5 0  5.5 6.5 0  6 6.5 0  6.5 6.5 0  7 6.5 0  7.5 6.5 0  8 6.5 0  8.5 6.5 0  9 6.5 0  9.5 6.5 0  10 6.5 0  10.5 6.5 0  11 6.5 0  11.5 6.5 0  12 6.5 0  12.5 6.5 0  13 6.5 0  13.5 6.5 0  14 6.5 0  14.5 6.5 0  15 6.5 0  15.5 6.5 0  16 6.5 0  16.5 6.5 0  17 6.5 0  17.5 6.5 0  18 6.5 0  18.5 6.5 0  19 6.5 0  19.5 6.5 0  20 6.5 0  0 7 0  0.5 7 0  1 7 0  1.5 7 0  2 7 0  2.5 7 0  3 7 0  3.5 7 0  4 7 0  4.5 7 0  5 7 0  5.5 7 0  6 7 0  6.5 7 0  7 7 0  7.5 7 0  8 7 0  8.5 7 0  9 7 0  9.5 7 0  10 7 0  10.5 7 0  11 7 0  11.5 7 0  12 7 0  12.5 7 0  13 7 0  13.5 7 0  14 7 0  14.5 7 0  15 7 0  15.5 7 0  16 7 0  16.5 7 0  17 7 0  17.5 7 0  18 7 0  18.5 7 0  19 7 0  19.5 7 0  20 7 0  0 7.5 0  0.5 7.5 0  1 7.5 0  1.5 7.5 0  2 7.5 0  2.5 7.5 0  3 7.5 0  3.5 7.5 0  4 7.5 0  4.5 7.5 0  5 7.5 0  5.5 7.5 0  6 7.5 0  6.5 7.5 0  7 7.5 0  7.5 7.5 0  8 7.5 0  8.5 7.5 0  9 7.5 0  9.5 7.5 0  10 7.5 0  10.5 7.5 0  11 7.5 0  11.5 7.5 0  12 7.5 0  12.5 7.5 0  13 7.5 0  13.5 7.5 0  14 7.5 0  14.5 7.5 0  15 7.5 0  15.5 7.5 0  16 7.5 0  16.5 7.5 0  17 7.5 0  17.5 7.5 0  18 7.5 0  18.5 7.5 0  19 7.5 0  19.5 7.5 0  20 7.5 0  0 8 0  0.5 8 0  1 8 0  1.5 8 0  2 8 0  2.5 8 0  3 8 0  3.5 8 0  4 8 0  4.5 8 0  5 8 0  5.5 8 0  6 8 0  6.5 8 0  7 8 0  7.5 8 0  8 8 0  8.5 8 0  9 8 0  9.5 8 0  10 8 0  10.5 8 0  11 8 0  11.5 8 0  12 8 0  12.5 8 0  13 8 0  13.5 8 0  14 8 0  14.5 8 0  15 8 0  15.5 8 0  16 8 0  16.5 8 0  17 8 0  17.5 8 0  18 8 0  18.5 8 0  19 8 0  19.5 8 0  20 8 0  0 8.5 0  0.5 8.5 0  1 8.5 0  1.5 8.5 0  2 8.5 0  2.5 8.5 0  3 8.5 0  3.5 8.5 0  4 8.5 0  4.5 8.5 0  5 8.5 0  5.5 8.5 0  6 8.5 0  6.5 8.5 0  7 8.5 0  7.5 8.5 0  8 8.5 0  8.5 8.5 0  9 8.5 0  9.5 8.5 0  10 8.5 0  10.5 8.5 0  11 8.5 0  11.5 8.5 0  12 8.5 0  12.5 8.5 0  13 8.5 0  13.5 8.5 0  14 8.5 0  14.5 8.5 0  15 8.5 0  15.5 8.5 0  16 8.5 0  16.5 8.5 0  17 8.5 0  17.5 8.5 0  18 8.5 0  18.5 8.5 0  19 8.5 0  19.5 8.5 0  20 8.5 0  0 9 0  0.5 9 0  1 9 0  1.5 9 0  2 9 0  2.5 9 0  3 9 0  3.5 9 0  4 9 0  4.5 9 0  5 9 0  5.5 9 0  6 9 0  6.5 9 0  7 9 0  7.5 9 0  8 9 0  8.5 9 0  9 9 0  9.5 9 0  10 9 0  10.5 9 0  11 9 0  11.5 9 0  12 9 0  12.5 9 0  13 9 0  13.5 9 0  14 9 0  14.5 9 0  15 9 0  15.5 9 0  16 9 0  16.5 9 0  17 9 0  17.5 9 0  18 9 0  18.5 9 0  19 9 0  19.5 9 0  20 9 0  0 9.5 0  0.5 9.5 0  1 9.5 0  1.5 9.5 0  2 9.5 0  2.5 9.5 0  3 9.5 0  3.5 9.5 0  4 9.5 0  4.5 9.5 0  5 9.5 0  5.5 9.5 0  6 9.5 0  6.5 9.5 0  7 9.5 0  7.5 9.5 0  8 9.5 0  8.5 9.5 0  9 9.5 0  9.5 9.5 0  10 9.5 0  10.5 9.5 0  11 9.5 0  11.5 9.5 0  12 9.5 0  12.5 9.5 0  13 9.5 0  13.5 9.5 0  14 9.5 0  14.5 9.5 0  15 9.5 0  15.5 9.5 0  16 9.5 0  16.5 9.5 0  17 9.5 0  17.5 9.5 0  18 9.5 0  18.5 9.5 0  19 9.5 0  19.5 9.5 0  20 9.5 0  0 10 0  0.5 10 0  1 10 0  1.5 10 0  2 10 0  2.5 10 0  3 10 0  3.5 10 0  4 10 0  4.5 10 0  5 10 0  5.5 10 0  6 10 0  6.5 10 0  7 10 0  7.5 10 0  8 10 0  8.5 10 0  9 10 0  9.5 10 0  10 10 0  10.5 10 0  11 10 0  11.5 10 0  12 10 0  12.5 10 0  13 10 0  13.5 10 0  14 10 0  14.5 10 0  15 10 0  15.5 10 0  16 10 0  16.5 10 0  17 10 0  17.5 10 0  18 10 0  18.5 10 0  19 10 0  19.5 10 0  20 10 0  0 10.5 0  0.5 10.5 0  1 10.5 0  1.5 10.5 0  2 10.5 0  2.5 10.5 0  3 10.5 0  3.5 10.5 0  4 10.5 0  4.5 10.5 0  5 10.5 0  5.5 10.5 0  6 10.5 0  6.5 10.5 0  7 10.5 0  7.5 10.5 0  8 10.5 0  8.5 10.5 0  9 10.5 0  9.5 10.5 0  10 10.5 0  10.5 10.5 0  11 10.5 0  11.5 10.5 0  12 10.5 0  12.5 10.5 0  13 10.5 0  13.5 10.5 0  14 10.5 0  14.5 10.5 0  15 10.5 0  15.5 10.5 0  16 10.5 0  16.5 10.5 0  17 10.5 0  17.5 10.5 0  18 10.5 0  18.5 10.5 0  19 10.5 0  19.5 10.5 0  20 10.5 0  0 11 0  0.5 11 0  1 11 0  1.5 11 0  2 11 0  2.5 11 0  3 11 0  3.5 11 0  4 11 0  4.5 11 0  5 11 0  5.5 11 0  6 11 0  6.5 11 0  7 11 0  7.5 11 0  8 11 0  8.5 11 0  9 11 0  9.5 11 0  10 11 0  10.5 11 0  11 11 0  11.5 11 0  12 11 0  12.5 11 0  13 11 0  13.5 11 0  14 11 0  14.5 11 0  15 11 0  15.5 11 0  16 11 0  16.5 11 0  17 11 0  17.5 11 0  18 11 0  18.5 11 0  19 11 0  19.5 11 0  20 11 0  0 11.5 0  0.5 11.5 0  1 11.5 0  1.5 11.5 0  2 11.5 0  2.5 11.5 0  3 11.5 0  3.5 11.5 0  4 11.5 0  4.5 11.5 0  5 11.5 0  5.5 11.5 0  6 11.5 0  6.5 11.5 0  7 11.5 0  7.5 11.5 0  8 11.5 0  8.5 11.5 0  9 11.5 0  9.5 11.5 0  10 11.5 0  10.5 11.5 0  11 11.5 0  11.5 11.5 0  12 11.5 0  12.5 11.5 0  13 11.5 0  13.5 11.5 0  14 11.5 0  14.5 11.5 0  15 11.5 0  15.5 11.5 0  16 11.5 0  16.5 11.5 0  17 11.5 0  17.5 11.5 0  18 11.5 0  18.5 11.5 0  19 11.5 0  19.5 11.5 0  20 11.5 0  0 12 0  0.5 12 0  1 12 0  1.5 12 0  2 12 0  2.5 12 0  3 12 0  3.5 12 0  4 12 0  4.5 12 0  5 12 0  5.5 12 0  6 12 0  6.5 12 0  7 12 0  7.5 12 0  8 12 0  8.5 12 0  9 12 0  9.5 12 0  10 12 0  10.5 12 0  11 12 0  11.5 12 0  12 12 0  12.5 12 0  13 12 0  13.5 12 0  14 12 0  14.5 12 0  
[...]
<PointData  Vectors="f_4890-0"> 
<DataArray  type="Float64"  Name="f_4890-0"  NumberOfComponents="3" format="ascii">0.0000000000000000e+00 0.0000000000000000e+00 0.0000000000000000e+00  -2.8882425237442632e-09 0.0000000000000000e+00 0.0000000000000000e+00  -1.8363295212377066e-08 0.0000000000000000e+00 0.0000000000000000e+00  -6.0258067171120284e-08 0.0000000000000000e+00 0.0000000000000000e+00  -1.4160829337755626e-07 0.0000000000000000e+00 0.0000000000000000e+00  -2.7529147867162914e-07 0.0000000000000000e+00 0.0000000000000000e+00  -4.7396673659586695e-07 0.0000000000000000e+00 0.0000000000000000e+00  -7.4999718911808538e-07 0.0000000000000000e+00 0.0000000000000000e+00  -1.1153780203877539e-06 0.0000000000000000e+00 0.0000000000000000e+00  -1.5816630635629851e-06 0.0000000000000000e+00 0.0000000000000000e+00  -2.1598868380014431e-06 0.0000000000000000e+00 0.0000000000000000e+00  -2.8604810246110290e-06 0.0000000000000000e+00 0.0000000000000000e+00  -3.6931850607258671e-06 0.0000000000000000e+00 0.0000000000000000e+00  -4.6669508562761132e-06 0.0000000000000000e+00 0.0000000000000000e+00  -5.7898418753074454e-06 0.0000000000000000e+00 0.0000000000000000e+00  -7.0689271010900728e-06 0.0000000000000000e+00 0.0000000000000000e+00  -8.5101706761150967e-06 0.0000000000000000e+00 0.0000000000000000e+00  -1.0118318373840460e-05 0.0000000000000000e+00 0.0000000000000000e+00  -1.1896782361534409e-05 0.0000000000000000e+00 0.0000000000000000e+00  -1.3847526086366349e-05 0.0000000000000000e+00 0.0000000000000000e+00  -1.5970951455171382e-05 0.0000000000000000e+00 0.0000000000000000e+00  -1.8265790750486678e-05 0.0000000000000000e+00 0.0000000000000000e+00  -2.0729005890458495e-05 0.0000000000000000e+00 0.0000000000000000e+00  -2.3355697678800030e-05 0.0000000000000000e+00 0.0000000000000000e+00  -2.6139027335988865e-05 0.0000000000000000e+00 0.0000000000000000e+00  -2.9070151777022846e-05 0.0000000000000000e+00 0.0000000000000000e+00  -3.2138172243834460e-05 0.0000000000000000e+00 0.0000000000000000e+00  -3.5330092179566621e-05 0.0000000000000000e+00 0.0000000000000000e+00  -3.8630772547599570e-05 0.0000000000000000e+00 0.0000000000000000e+00  -4.2022856188351064e-05 0.0000000000000000e+00 0.0000000000000000e+00  -4.5486593416844443e-05 0.0000000000000000e+00 0.0000000000000000e+00  -4.8999396097885139e-05 0.0000000000000000e+00 0.0000000000000000e+00  -5.2534625801212705e-05 0.0000000000000000e+00 0.0000000000000000e+00  -5.6057990335123507e-05 0.0000000000000000e+00 0.0000000000000000e+00  -5.9515459174835262e-05 0.0000000000000000e+00 0.0000000000000000e+00  -6.2787501748600750e-05 0.0000000000000000e+00 0.0000000000000000e+00  -6.5498393455858188e-05 0.0000000000000000e+00 0.0000000000000000e+00  -6.6170670456982804e-05 0.0000000000000000e+00 0.0000000000000000e+00  -5.8360827589140762e-05 0.0000000000000000e+00 0.0000000000000000e+00  -1.3360949140650441e-05 0.0000000000000000e+00 0.0000000000000000e+00  1.8072366787606791e-04 0.0000000000000000e+00 0.0000000000000000e+00  0.0000000000000000e+00 -2.8882420519474414e-09 0.0000000000000000e+00  4.6365482900878173e-09 4.6365482650087492e-09 0.0000000000000000e+00  -4.3994181938812593e-09 2.4706769225988126e-08 0.0000000000000000e+00  -3.9749508510492064e-08 5.7674049979005799e-08 0.0000000000000000e+00  -1.1451327449217691e-07 1.0358877836487881e-07 0.0000000000000000e+00  -2.4160636230167633e-07 1.6229246497321965e-07 0.0000000000000000e+00  -4.3369960114569259e-07 2.3352426871650153e-07 0.0000000000000000e+00  -7.0316373780834870e-07 3.1695056029787444e-07 0.0000000000000000e+00  -1.0620033111373655e-06 4.1216737029498167e-07 0.0000000000000000e+00  -1.5217843445759207e-06 5.1869610334730093e-07 0.0000000000000000e+00  -2.0935566423060269e-06 6.3597780601345140e-07 0.0000000000000000e+00  -2.7877704225447170e-06 7.6336714912663833e-07 0.0000000000000000e+00  -3.6141870382059830e-06 9.0012640097855918e-07 0.0000000000000000e+00  -4.5817837492625058e-06 1.0454195674910986e-06 0.0000000000000000e+00  -5.6986527513180325e-06 1.1983069160114452e-06 0.0000000000000000e+00  -6.9718949472861283e-06 1.3577401586145130e-06 0.0000000000000000e+00  -8.4075092417926648e-06 1.5225585852927795e-06 0.0000000000000000e+00  -1.0010278472828126e-05 1.6914865037755867e-06 0.0000000000000000e+00  -1.1783653431833248e-05 1.8631323186190264e-06 0.0000000000000000e+00  -1.3729636787581072e-05 2.0359896076619136e-06 0.0000000000000000e+00  -1.5848669057745849e-05 2.2084405102510789e-06 0.0000000000000000e+00  -1.8139519051112587e-05 2.3787616465418415e-06 0.0000000000000000e+00  -2.0599181407474763e-05 2.5451326802961079e-06 0.0000000000000000e+00  -2.3222783849921351e-05 2.7056473682931465e-06 0.0000000000000000e+00  -2.6003506501424239e-05 2.8583265140169399e-06 0.0000000000000000e+00  -2.8932514826745698e-05 3.0011315323092873e-06 0.0000000000000000e+00  -3.1998906120944168e-05 3.1319759449990349e-06 0.0000000000000000e+00  -3.5189666230386578e-05 3.2487295597989559e-06 0.0000000000000000e+00  -3.8489626909413152e-05 3.3492047379708054e-06 0.0000000000000000e+00  -4.1881401266709653e-05 3.4311026817751753e-06 0.0000000000000000e+00  -4.5345245656254887e-05 3.4918713499861277e-06 0.0000000000000000e+00  -4.8858720066406484e-05 3.5283642989529568e-06 0.0000000000000000e+00  -5.2395776891343407e-05 3.5360408413789680e-06 0.0000000000000000e+00  -5.5923984631419814e-05 3.5071099855920514e-06 0.0000000000000000e+00  -5.9394578344518293e-05 3.4263802556004659e-06 0.0000000000000000e+00  -6.2701257710546515e-05 3.2630140453708606e-06 0.0000000000000000e+00  -6.5493324158767582e-05 2.9591931940857698e-06 0.0000000000000000e+00  -6.6296126840198667e-05 2.4357926778418335e-06 0.0000000000000000e+00  -5.8414163222976944e-05 1.6905182733996677e-06 0.0000000000000000e+00  -1.2284392688155113e-05 1.0382001517068872e-06 0.0000000000000000e+00  1.8203374177545349e-04 5.5965301151967115e-07 0.0000000000000000e+00  0.0000000000000000e+00 -1.8363295003708200e-08 0.0000000000000000e+00  2.4706769810438083e-08 -4.3994188464159601e-09 0.0000000000000000e+00  3.5542956950100805e-08 3.5542956622690159e-08 0.0000000000000000e+00  2.0003632279238344e-08 1.0155667666529541e-07 0.0000000000000000e+00  -3.4954418099703233e-08 1.9347632438668718e-07 0.0000000000000000e+00  -1.4224663371248582e-07 3.1094658139719275e-07 0.0000000000000000e+00  -3.1455993166705771e-07 4.5346070699601525e-07 0.0000000000000000e+00  -5.6428641319882742e-07 6.2036815813789043e-07 0.0000000000000000e+00  -9.0345784378243258e-07 8.1087292789843904e-07 0.0000000000000000e+00  -1.3436751620042060e-06 1.0240267934734384e-06 0.0000000000000000e+00  -1.8960320815549147e-06 1.2587196297699625e-06 0.0000000000000000e+00  -2.5710325687329080e-06 1.5136682298179309e-06 0.0000000000000000e+00  -3.3785020665604762e-06 1.7874045227687588e-06 0.0000000000000000e+00  -4.3274924514577225e-06 2.0782638352706379e-06 0.0000000000000000e+00  -5.4261809087990168e-06 2.3843737732308813e-06 0.0000000000000000e+00  -6.6817631503983448e-06 2.7036443195894233e-06 0.0000000000000000e+00  -8.1003416953575152e-06 3.0337597871853024e-06 0.0000000000000000e+00  -9.6868102568160282e-06 3.3721733109306356e-06 0.0000000000000000e+00  -1.1444735637383895e-05 3.7161045916182761e-06 0.0000000000000000e+00  -1.3376238882528013e-05 4.0625415942440636e-06 0.0000000000000000e+00  -1.5481877803104953e-05 4.4082468317859201e-06 0.0000000000000000e+00  -1.7760533267737463e-05 4.7497687244671102e-06 0.0000000000000000e+00  -2.0209301906875160e-05 5.0834582616831573e-06 0.0000000000000000e+00  -2.2823397916887491e-05 5.4054907253484578e-06 0.0000000000000000e+00  -2.5596066508354756e-05 5.7118914748180861e-06 0.0000000000000000e+00  -2.8518510991179895e-05 5.9985634927789380e-06 0.0000000000000000e+00  -3.1579834402044925e-05 6.2613121078276220e-06 0.0000000000000000e+00  -3.4766994591957613e-05 6.4958582110047672e-06 0.0000000000000000e+00  -3.8064768324683437e-05 6.6978233948843333e-06 0.0000000000000000e+00  -4.1455713986348006e-05 6.8626550147418882e-06 0.0000000000000000e+00  -4.4920109912647618e-05 6.9854280249577131e-06 0.0000000000000000e+00  -4.8435806668896204e-05 7.0603984833244076e-06 0.0000000000000000e+00  -5.1977765660186132e-05 7.0800689467700004e-06 0.0000000000000000e+00  -5.5516237106592906e-05 7.0333571795540790e-06 0.0000000000000000e+00  -5.9008398176934819e-05 6.9023946932163681e-06 0.0000000000000000e+00  -6.2357796552131532e-05 6.6583003368801475e-06 0.0000000000000000e+00  -6.5217400664166066e-05 6.2603021463398160e-06 0.0000000000000000e+00  -6.6055523254065717e-05 5.6729453209083857e-06 0.0000000000000000e+00  -5.7916158219251278e-05 4.9208817976834409e-06 0.0000000000000000e+00  -1.0827529572827581e-05 4.1118377294381127e-06 0.0000000000000000e+00  1.8401467546123092e-04 3.0464327271763976e-06 0.0000000000000000e+00  0.0000000000000000e+00 -6.0258067712006248e-08 0.0000000000000000e+00  5.7674050033789481e-08 -3.9749509168859546e-08 0.0000000000000000e+00  1.0155667619109835e-07 2.0003632704718465e-08 0.0000000000000000e+00  1.1899132330876728e-07 1.1899132369828966e-07 0.0000000000000000e+00  9.6989535862244379e-08 2.5688659363204703e-07 0.0000000000000000e+00  2.2636226025029322e-08 4.3313452859288243e-07 0.0000000000000000e+00  -1.1677203214798387e-07 6.4697294820230199e-07 0.0000000000000000e+00  -3.3365674884976235e-07 8.9743469446610459e-07 0.0000000000000000e+00  -6.4009208047657132e-07 1.1833395097750894e-06 0.0000000000000000e+00  -1.0477354039244057e-06 1.5032810142823578e-06 0.0000000000000000e+00  -1.5677522596371219e-06 1.8556110675019855e-06 0.0000000000000000e+00  -2.2107350268470051e-06 2.2384225694070464e-06 0.0000000000000000e+00  -2.9866149984940497e-06 2.6495314749941471e-06 0.0000000000000000e+00  -3.9045677345538985e-06 3.0864587887462127e-06 0.0000000000000000e+00  -4.9729117746565310e-06 3.5464133525874684e-06 0.0000000000000000e+00  -6.1990010349606840e-06 4.0262763216054912e-06 0.0000000000000000e+00  -7.5891115168162303e-06 4.5225882880248354e-06 0.0000000000000000e+00  -9.1483232573599307e-06 5.0315401056992013e-06 0.0000000000000000e+00  -1.0880398835605451e-05 5.5489684881712724e-06 0.0000000000000000e+00  -1.2787660101338446e-05 6.0703574543559795e-06 0.0000000000000000e+00  -1.4870865183078055e-05 6.5908466031658061e-06 0.0000000000000000e+00  -1.7129088166304710e-05 7.1052470053778575e-06 0.0000000000000000e+00  -1.9559604123664580e-05 7.6080651191574688e-06 0.0000000000000000e+00  -2.2157782343887036e-05 8.0935345277648903e-06 0.0000000000000000e+00  -2.4916990616595399e-05 8.5556542773129754e-06 0.0000000000000000e+00  -2.7828513223507829e-05 8.9882309557602853e-06 0.0000000000000000e+00  -3.0881484813106739e-05 9.3849189564020597e-06 0.0000000000000000e+00  -3.4062841633855375e-05 9.7392488483409367e-06 0.0000000000000000e+00  -3.7357290848162782e-05 1.0044625972881063e-05 0.0000000000000000e+00  -4.0747297938528241e-05 1.0294267955117240e-05 0.0000000000000000e+00  -4.4213089321546719e-05 1.0481027109845391e-05 0.0000000000000000e+00  -4.7732642999244713e-05 1.0597008712409307e-05 0.0000000000000000e+00  -5.1281479489810655e-05 1.0632855219456524e-05 0.0000000000000000e+00  -5.4831167781379980e-05 1.0576566341516219e-05 0.0000000000000000e+00  -5.8340892123111211e-05 1.0411930097450752e-05 0.0000000000000000e+00  -6.1714410672689674e-05 1.0117450754899502e-05 0.0000000000000000e+00  -6.4592501294252169e-05 9.6685765321381833e-06 0.0000000000000000e+00  -6.5391678850951470e-05 9.0479133308745633e-06 0.0000000000000000e+00  -5.7039091542785783e-05 8.2611613231852632e-06 0.0000000000000000e+00  -9.5193543700692519e-06 7.3220607529074820e-06 0.0000000000000000e+00  1.8540093728653772e-04 6.1577706820535281e-06 0.0000000000000000e+00  0.0000000000000000e+00 -1.4160829388433520e-07 0.0000000000000000e+00  1.0358877827574094e-07 -1.1451327430705123e-07 0.0000000000000000e+00  1.9347632422674081e-07 -3.4954417665439275e-08 0.0000000000000000e+00  2.5688659322835341e-07 9.6989535962270183e-08 0.0000000000000000e+00  2.8085160818489680e-07 2.8085160837194036e-07 0.0000000000000000e+00  2.5245291130557257e-07 5.1588763207243755e-07 0.0000000000000000e+00  1.5896503729870050e-07 8.0109225943739450e-07 0.0000000000000000e+00  -1.2071627078160590e-08 1.1351946822846407e-06 0.0000000000000000e+00  -2.7278703322327993e-07 1.5166449584872699e-06 0.0000000000000000e+00  -6.3491431727070485e-07 1.9435953841225827e-06 0.0000000000000000e+00  -1.1097167908413060e-06 2.4138787456990789e-06 0.0000000000000000e+00  -1.7079083036594485e-06 2.9249845767307979e-06 0.0000000000000000e+00  -2.4395665628338793e-06 3.4740343379082697e-06 0.0000000000000000e+00  -3.3140391396992627e-06 4.0577564702247138e-06 0.0000000000000000e+00  -4.3398421037479812e-06 4.6724623388909636e-06 0.0000000000000000e+00  -5.5245514679291763e-06 5.3140242348360612e-06 0.0000000000000000e+00  -6.8746879093395083e-06 5.9778567127416126e-06 0.0000000000000000e+00  -8.3955955645930274e-06 6.6589026680994940e-06 0.0000000000000000e+00  -1.0091316080061874e-05 7.3516255966921438e-06 0.0000000000000000e+00  -1.1964459481741351e-05 8.0500095318161789e-06 0.0000000000000000e+00  -1.4016073861641566e-05 8.7475680032743243e-06 0.0000000000000000e+00  -1.6245516273576337e-05 9.4373631782361398e-06 0.0000000000000000e+00  -1.8650327617239242e-05 1.0112035873467387e-05 0.0000000000000000e+00  -2.1226114595201292e-05 1.0763846415482750e-05 0.0000000000000000e+00  -2.3966442064519824e-05 1.1384725166128372e-05 0.0000000000000000e+00  -2.6862739237287342e-05 1.1966329757393214e-05 0.0000000000000000e+00  -2.9904223313558191e-05 1.2500103339132464e-05 0.0000000000000000e+00  -3.3077844440768730e-05 1.2977323956903637e-05 0.0000000000000000e+00  -3.6368256764468717e-05 1.3389128836155042e-05 0.0000000000000000e+00  -3.9757822043494967e-05 1.3726488057976075e-05 0.0000000000000000e+00  -4.3226651607901570e-05 1.3980089880625649e-05 0.0000000000000000e+00  -4.6752665014629656e-05 1.4140088175593570e-05 0.0000000000000000e+00  -5.0311456410594445e-05 1.4195664793004878e-05 0.0000000000000000e+00  -5.3874760504945761e-05 1.4134414757027597e-05 0.0000000000000000e+00  -5.7401457579390097e-05 1.3941750729608930e-05 0.0000000000000000e+00  -6.0792479208260391e-05 1.3600949632558457e-05 0.0000000000000000e+00  -6.3678355025393438e-05 1.3095062508480338e-05 0.0000000000000000e+00  -6.4451631401492624e-05 1.2411836623129663e-05 0.0000000000000000e+00  -5.6010344141675661e-05 1.1549970279125106e-05 0.0000000000000000e+00  -8.3730206539836462e-06 1.0520814975930285e-05 0.0000000000000000e+00  1.8651664771863907e-04 9.3536324926211185e-06 0.0000000000000000e+00  0.0000000000000000e+00 -2.7529147885697308e-07 0.0000000000000000e+00  1.6229246481115586e-07 -2.4160636212237973e-07 0.0000000000000000e+00  3.1094658110240655e-07 -1.4224663360296009e-07 0.0000000000000000e+00  4.3313452867459983e-07 2.2636226058606574e-08 0.0000000000000000e+00  5.1588763204722170e-07 2.5245291123163157e-07 0.0000000000000000e+00  5.4628342622334732e-07 5.4628342639723111e-07 0.0000000000000000e+00  5.1157220444688968e-07 9.0289442471265293e-07 0.0000000000000000e+00  3.9924984148371541e-07 1.3207297007975462e-06 0.0000000000000000e+00  1.9711927190016135e-07 1.7978908776060055e-06 0.0000000000000000e+00  -1.0664541854222483e-07 2.3321128042128966e-06 0.0000000000000000e+00  -5.2342887082015273e-07 2.9207353634501755e-06 0.0000000000000000e+00  -1.0640972593078321e-06 3.5606727560848688e-06 0.0000000000000000e+00  -1.7389134365843793e-06 4.2483812667931298e-06 0.0000000000000000e+00  -2.5574440313899897e-06 4.9798266145515789e-06 0.0000000000000000e+00  -3.5284582607891111e-06 5.7504521321032786e-06 0.0000000000000000e+00  -4.6598184634003277e-06 6.5551492054537054e-06 0.0000000000000000e+00  -5.9583626232254311e-06 7.3882315782686702e-06 0.0000000000000000e+00  -7.4297795156252229e-06 8.2434152687020281e-06 0.0000000000000000e+00  -9.0784774737404774e-06 9.1138059636778453e-06 0.0000000000000000e+00  -1.0907448230327899e-05 9.9918958092877053e-06 0.0000000000000000e+00  -1.2918127762585558e-05 1.0869571396540671e-05 0.0000000000000000e+00  -1.5110256557708532e-05 1.1738134549562093e-05 0.0000000000000000e+00  -1.7481742232985256e-05 1.2588337024800932e-05 0.0000000000000000e+00  -2.0028527932809091e-05 1.3410429480487029e-05 0.0000000000000000e+00  -2.2744470432891905e-05 1.4194223866401872e-05 0.0000000000000000e+00  -2.5621232380749294e-05 1.4929166631538524e-05 0.0000000000000000e+00  -2.8648193775407247e-05 1.5604417623405677e-05 0.0000000000000000e+00  -3.1812388830807253e-05 1.6208926058200753e-05 0.0000000000000000e+00  -3.5098476135224043e-05 1.6731490373549678e-05 0.0000000000000000e+00  -3.8488752299319480e-05 1.7160783425430704e-05 0.0000000000000000e+00  -4.1963217365291474e-05 1.7485319961988148e-05 0.0000000000000000e+00  -4.5499665414170968e-05 1.7693344394903815e-05 0.0000000000000000e+00  -4.9073563049436640e-05 1.7772634770642793e-05 0.0000000000000000e+00  -5.2656423889895494e-05 1.7710275372066009e-05 0.0000000000000000e+00  -5.6206440419878468e-05 1.7492576906260164e-05 0.0000000000000000e+00  -5.9622500812437649e-05 1.7105540680218076e-05 0.0000000000000000e+00  -6.2530443215179211e-05 1.6536521689099694e-05 0.0000000000000000e+00  -6.3315534722421194e-05 1.5777865073062658e-05 0.0000000000000000e+00  -5.4872607151957859e-05 1.4833238155767551e-05 0.0000000000000000e+00  -7.2377532269248269e-06 1.3727929335361442e-05 0.0000000000000000e+00  1.8762570875004140e-04 1.2514889042930514e-05 0.0000000000000000e+00  0.0000000000000000e+00 -4.7396673674155317e-07 0.0000000000000000e+00  2.3352426874469579e-07 -4.3369960100733388e-07 0.0000000000000000e+00  4.5346070733103790e-07 -3.1455993172027732e-07 0.0000000000000000e+00  6.4697294902343574e-07 -1.1677203204762816e-07 0.0000000000000000e+00  8.0109225977288646e-07 1.5896503765744280e-07 0.0000000000000000e+00  9.0289442464384993e-07 5.1157220447154416e-07 0.0000000000000000e+00  9.3960731193095763e-07 9.3960731179536237e-07 0.0000000000000000e+00  8.9867992286766527e-07 1.4412516094337757e-06 0.0000000000000000e+00  7.6784051126282350e-07 2.0142849786332823e-06 0.0000000000000000e+00  5.3515686291894243e-07 2.6560550912689322e-06 0.0000000000000000e+00  1.8910270883284834e-07 3.3634423151043351e-06 0.0000000000000000e+00  -2.8136832024418364e-07 4.1328214535448856e-06 0.0000000000000000e+00  -8.8674040831563429e-07 4.9600213721080577e-06 0.0000000000000000e+00  -1.6368443604367456e-06 5.8402837604822127e-06 0.0000000000000000e+00  -2.5407570592225931e-06 6.7682224572112046e-06 0.0000000000000000e+00  -3.6066913549273400e-06 7.7377850334486277e-06 0.0000000000000000e+00  -4.8418764401288501e-06 8.7422185450000819e-06 0.0000000000000000e+00  -6.2524290984688708e-06 9.7740415964419077e-06 0.0000000000000000e+00  -7.8432166480078977e-06 1.0825024995693646e-05 0.0000000000000000e+00  -9.6177128670114532e-06 1.1886183420633563e-05 0.0000000000000000e+00  -1.1577848753808260e-05 1.2947780431020174e-05 0.0000000000000000e+00  -1.3723860587236997e-05 1.3999348996040936e-05 0.0000000000000000e+00  -1.6054138407081775e-05 1.5029729251077183e-05 0.0000000000000000e+00  -1.8565078787566409e-05 1.6027124460463475e-05 0.0000000000000000e+00  -2.1250946533549539e-05 1.6979175019047101e-05 0.0000000000000000e+00  -2.4103750880524919e-05 1.7873048691924363e-05 0.0000000000000000e+00  -2.7113142907066710e-05 1.8695543136314966e-05 0.0000000000000000e+00  -3.0266342476289842e-05 1.9433194047738254e-05 0.0000000000000000e+00  -3.3548105243559084e-05 2.0072379303947731e-05 0.0000000000000000e+00  -3.6940742403227987e-05 2.0599407117431523e-05 0.0000000000000000e+00  -4.0424202041345708e-05 2.1000576419001528e-05 0.0000000000000000e+00  -4.3976180267807606e-05 2.1262204805167906e-05 0.0000000000000000e+00  -4.7572006548165335e-05 2.1370641223929105e-05 0.0000000000000000e+00  -5.1182971943327700e-05 2.1312329401062527e-05 0.0000000000000000e+00  -5.4766804560096081e-05 2.107407906