<?xml version="1.0"?>
<VTKFile type="UnstructuredGrid"  version="0.1"  >
<UnstructuredGrid>
<Piece  NumberOfPoints="1681" NumberOfCells="3200">
<Points>
<DataArray  type="Float64"  NumberOfComponents="3"  format="ascii">0 0 0  0.5 0 0  1 0 0  1.5 0 0  2 0 0  2.5 0 0  3 0 0  3.5 0 0  4 0 0  4.5 0 0  5 0 0  5.5 0 0  6 0 0  6.5 0 0  7 0 0  7.5 0 0  8 0 0  8.5 0 0  9 0 0  9.5 0 0  10 0 0  10.5 0 0  11 0 0  11.5 0 0  12 0 0  12.5 0 0  13 0 0  13.5 0 0  14 0 0  14.5 0 0  15 0 0  15.5 0 0  16 0 0  16.5 0 0  17 0 0  17.5 0 0  18 0 0  18.5 0 0  19 0 0  19.5 0 0  20 0 0  0 0.5 0  0.5 0.5 0  1 0.5 0  1.5 0.5 0  2 0.5 0  2.5 0.5 0  3 0.5 0  3.5 0.5 0  4 0.5 0  4.5 0.5 0  5 0.5 0  5.5 0.5 0  6 0.5 0  6.5 0.5 0  7 0.5 0  7.5 0.5 0  8 0.5 0  8.5 0.5 0  9 0.5 0  9.5 0.5 0  10 0.5 0  10.5 0.5 0  11 0.5 0  11.5 0.5 0  12 0.5 0  12.5 0.5 0  13 0.5 0  13.5 0.5 0  14 0.5 0  14.5 0.5 0  15 0.5 0  15.5 0.5 0  16 0.5 0  16.5 0.5 0  17 0.5 0  17.5 0.5 0  18 0.5 0  18.5 0.5 0  19 0.5 0  19.5 0.5 0  20 0.5 0  0 1 0  0.5 1 0  1 1 0  1.5 1 0  2 1 0  2.5 1 0  3 1 0  3.5 1 0  4 1 0  4.5 1 0  5 1 0  5.5 1 0  6 1 0  6.5 1 0  7 1 0  7.5 1 0  8 1 0  8.5 1 0  9 1 0  9.5 1 0  10 1 0  10.5 1 0  11 1 0  11.5 1 0  12 1 0  12.5 1 0  13 1 0  13.5 1 0  14 1 0  14.5 1 0  15 1 0  15.5 1 0  16 1 0  16.5 1 0  17 1 0  17.5 1 0  18 1 0  18.5 1 0  19 1 0  19.5 1 0  20 1 0  0 1.5 0  0.5 1.5 0  1 1.5 0  1.5 1.5 0  2 1.5 0  2.5 1.5 0  3 1.5 0  3.5 1.5 0  4 1.5 0  4.5 1.5 0  5 1.5 0  5.5 1.5 0  6 1.5 0  6.5 1.5 0  7 1.5 0  7.5 1.5 0  8 1.5 0  8.5 1.5 0  9 1.5 0  9.5 1.5 0  10 1.5 0  10.5 1.5 0  11 1.5 0  11.5 1.5 0  12 1.5 0  12.5 1.5 0  13 1.5 0  13.5 1.5 0  14 1.5 0  14.5 1.5 0  15 1.5 0  15.5 1.5 0  16 1.5 0  16.5 1.5 0  17 1.5 0  17.5 1.5 0  18 1.5 0  18.5 1.5 0  19 1.5 0  19.5 1.5 0  20 1.5 0  0 2 0  0.5 2 0  1 2 0  1.5 2 0  2 2 0  2.5 2 0  3 2 0  3.5 2 0  4 2 0  4.5 2 0  5 2 0  5.5 2 0  6 2 0  6.5 2 0  7 2 0  7.5 2 0  8 2 0  8.5 2 0  9 2 0  9.5 2 0  10 2 0  10.5 2 0  11 2 0  11.5 2 0  12 2 0  12.5 2 0  13 2 0  13.5 2 0  14 2 0  14.5 2 0  15 2 0  15.5 2 0  16 2 0  16.5 2 0  17 2 0  17.5 2 0  18 2 0  18.5 2 0  19 2 0  19.5 2 0  20 2 0  0 2.5 0  0.5 2.5 0  1 2.5 0  1.5 2.5 0  2 2.5 0  2.5 2.5 0  3 2.5 0  3.5 2.5 0  4 2.5 0  4.5 2.5 0  5 2.5 0  5.5 2.5 0  6 2.5 0  6.5 2.5 0  7 2.5 0  7.5 2.5 0  8 2.5 0  8.5 2.5 0  9 2.5 0  9.5 2.5 0  10 2.5 0  10.5 2.5 0  11 2.5 0  11.5 2.5 0  12 2.5 0  12.5 2.5 0  13 2.5 0  13.5 2.5 0  14 2.5 0  14.5 2.5 0  15 2.5 0  15.5 2.5 0  16 2.5 0  16.5 2.5 0  17 2.5 0  17.5 2.5 0  18 2.5 0  18.5 2.5 0  19 2.5 0  19.5 2.5 0  20 2.5 0  0 3 0  0.5 3 0  1 3 0  1.5 3 0  2 3 0  2.5 3 0  3 3 0  3.5 3 0  4 3 0  4.5 3 0  5 3 0  5.5 3 0  6 3 0  6.5 3 0  7 3 0  7.5 3 0  8 3 0  8.5 3 0  9 3 0  9.5 3 0  10 3 0  10.5 3 0  11 3 0  11.5 3 0  12 3 0  12.5 3 0  13 3 0  13.5 3 0  14 3 0  14.5 3 0  15 3 0  15.5 3 0  16 3 0  16.5 3 0  17 3 0  17.5 3 0  18 3 0  18.5 3 0  19 3 0  19.5 3 0  20 3 0  0 3.5 0  0.5 3.5 0  1 3.5 0  1.5 3.5 0  2 3.5 0  2.5 3.5 0  3 3.5 0  3.5 3.5 0  4 3.5 0  4.5 3.5 0  5 3.5 0  5.5 3.5 0  6 3.5 0  6.5 3.5 0  7 3.5 0  7.5 3.5 0  8 3.5 0  8.5 3.5 0  9 3.5 0  9.5 3.5 0  10 3.5 0  10.5 3.5 0  11 3.5 0  11.5 3.5 0  12 3.5 0  12.5 3.5 0  13 3.5 0  13.5 3.5 0  14 3.5 0  14.5 3.5 0  15 3.5 0  15.5 3.5 0  16 3.5 0  16.5 3.5 0  17 3.5 0  17.5 3.5 0  18 3.5 0  18.5 3.5 0  19 3.5 0  19.5 3.5 0  20 3.5 0  0 4 0  0.5 4 0  1 4 0  1.5 4 0  2 4 0  2.5 4 0  3 4 0  3.5 4 0  4 4 0  4.5 4 0  5 4 0  5.5 4 0  6 4 0  6.5 4 0  7 4 0  7.5 4 0  8 4 0  8.5 4 0  9 4 0  9.5 4 0  10 4 0  10.5 4 0  11 4 0  11.5 4 0  12 4 0  12.5 4 0  13 4 0  13.5 4 0  14 4 0  14.5 4 0  15 4 0  15.5 4 0  16 4 0  16.5 4 0  17 4 0  17.5 4 0  18 4 0  18.5 4 0  19 4 0  19.5 4 0  20 4 0  0 4.5 0  0.5 4.5 0  1 4.5 0  1.5 4.5 0  2 4.5 0  2.5 4.5 0  3 4.5 0  3.5 4.5 0  4 4.5 0  4.5 4.5 0  5 4.5 0  5.5 4.5 0  6 4.5 0  6.5 4.5 0  7 4.5 0  7.5 4.5 0  8 4.5 0  8.5 4.5 0  9 4.5 0  9.5 4.5 0  10 4.5 0  10.5 4.5 0  11 4.5 0  11.5 4.5 0  12 4.5 0  12.5 4.5 0  13 4.5 0  13.5 4.5 0  14 4.5 0  14.5 4.5 0  15 4.5 0  15.5 4.5 0  16 4.5 0  16.5 4.5 0  17 4.5 0  17.5 4.5 0  18 4.5 0  18.5 4.5 0  19 4.5 0  19.5 4.5 0  20 4.5 0  0 5 0  0.5 5 0  1 5 0  1.5 5 0  2 5 0  2.5 5 0  3 5 0  3.5 5 0  4 5 0  4.5 5 0  5 5 0  5.5 5 0  6 5 0  6.5 5 0  7 5 0  7.5 5 0  8 5 0  8.5 5 0  9 5 0  9.5 5 0  10 5 0  10.5 5 0  11 5 0  11.5 5 0  12 5 0  12.5 5 0  13 5 0  13.5 5 0  14 5 0  14.5 5 0  15 5 0  15.5 5 0  16 5 0  16.5 5 0  17 5 0  17.5 5 0  18 5 0  18.5 5 0  19 5 0  19.5 5 0  20 5 0  0 5.5 0  0.5 5.5 0  1 5.5 0  1.5 5.5 0  2 5.5 0  2.5 5.5 0  3 5.5 0  3.5 5.5 0  4 5.5 0  4.5 5.5 0  5 5.5 0  5.5 5.5 0  6 5.5 0  6.5 5.5 0  7 5.5 0  7.5 5.5 0  8 5.5 0  8.5 5.5 0  9 5.5 0  9.5 5.5 0  10 5.5 0  10.5 5.5 0  11 5.5 0  11.5 5.5 0  12 5.5 0  12.5 5.5 0  13 5.5 0  13.5 5.5 0  14 5.5 0  14.5 5.5 0  15 5.5 0  15.5 5.5 0  16 5.5 0  16.5 5.5 0  17 5.5 0  17.5 5.5 0  18 5.5 0  18.5 5.5 0  19 5.5 0  19.5 5.5 0  20 5.5 0  0 6 0  0.5 6 0  1 6 0  1.5 6 0  2 6 0  2.5 6 0  3 6 0  3.5 6 0  4 6 0  4.5 6 0  5 6 0  5.5 6 0  6 6 0  6.5 6 0  7 6 0  7.5 6 0  8 6 0  8.5 6 0  9 6 0  9.5 6 0  10 6 0  10.5 6 0  11 6 0  11.5 6 0  12 6 0  12.5 6 0  13 6 0  13.5 6 0  14 6 0  14.5 6 0  15 6 0  15.5 6 0  16 6 0  16.5 6 0  17 6 0  17.5 6 0  18 6 0  18.5 6 0  19 6 0  19.5 6 0  20 6 0  0 6.5 0  0.5 6.5 0  1 6.5 0  1.5 6.5 0  2 6.5 0  2.5 6.5 0  3 6.5 0  3.5 6.5 0  4 6.5 0  4.5 6.5 0  5 6.5 0  5.5 6.5 0  6 6.5 0  6.5 6.5 0  7 6.5 0  7.5 6.5 0  8 6.5 0  8.5 6.5 0  9 6.5 0  9.5 6.5 0  10 6.5 0  10.5 6.5 0  11 6.5 0  11.5 6.5 0  12 6.5 0  12.5 6.5 0  13 6.5 0  13.5 6.5 0  14 6.5 0  14.5 6.5 0  15 6.5 0  15.5 6.5 0  16 6.5 0  16.5 6.5 0  17 6.5 0  17.5 6.5 0  18 6.5 0  18.5 6.5 0  19 6.5 0  19.5 6.5 0  20 6.5 0  0 7 0  0.5 7 0  1 7 0  1.5 7 0  2 7 0  2.5 7 0  3 7 0  3.5 7 0  4 7 0  4.5 7 0  5 7 0  5.5 7 0  6 7 0  6.5 7 0  7 7 0  7.5 7 0  8 7 0  8.5 7 0  9 7 0  9.5 7 0  10 7 0  10.5 7 0  11 7 0  11.5 7 0  12 7 0  12.5 7 0  13 7 0  13.5 7 0  14 7 0  14.5 7 0  15 7 0  15.5 7 0  16 7 0  16.5 7 0  17 7 0  17.5 7 0  18 7 0  18.5 7 0  19 7 0  19.5 7 0  20 7 0  0 7.5 0  0.5 7.5 0  1 7.5 0  1.5 7.5 0  2 7.5 0  2.5 7.5 0  3 7.5 0  3.5 7.5 0  4 7.5 0  4.5 7.5 0  5 7.5 0  5.5 7.5 0  6 7.5 0  6.5 7.5 0  7 7.5 0  7.5 7.5 0  8 7.5 0  8.5 7.5 0  9 7.5 0  9.5 7.5 0  10 7.5 0  10.5 7.5 0  11 7.5 0  11.5 7.5 0  12 7.5 0  12.5 7.5 0  13 7.5 0  13.5 7.5 0  14 7.5 0  14.5 7.5 0  15 7.5 0  15.5 7.5 0  16 7.5 0  16.5 7.5 0  17 7.5 0  17.5 7.5 0  18 7.5 0  18.5 7.5 0  19 7.5 0  19.5 7.5 0  20 7.5 0  0 8 0  0.5 8 0  1 8 0  1.5 8 0  2 8 0  2.5 8 0  3 8 0  3.5 8 0  4 8 0  4.5 8 0  5 8 0  5.5 8 0  6 8 0  6.5 8 0  7 8 0  7.5 8 0  8 8 0  8.5 8 0  9 8 0  9.5 8 0  10 8 0  10.5 8 0  11 8 0  11.5 8 0  12 8 0  12.5 8 0  13 8 0  13.5 8 0  14 8 0  14.5 8 0  15 8 0  15.5 8 0  16 8 0  16.5 8 0  17 8 0  17.5 8 0  18 8 0  18.5 8 0  19 8 0  19.5 8 0  20 8 0  0 8.5 0  0.5 8.5 0  1 8.5 0  1.5 8.5 0  2 8.5 0  2.5 8.5 0  3 8.5 0  3.5 8.5 0  4 8.5 0  4.5 8.5 0  5 8.5 0  5.5 8.5 0  6 8.5 0  6.5 8.5 0  7 8.5 0  7.5 8.5 0  8 8.5 0  8.5 8.5 0  9 8.5 0  9.5 8.5 0  10 8.5 0  10.5 8.5 0  11 8.5 0  11.5 8.5 0  12 8.5 0  12.5 8.5 0  13 8.5 0  13.5 8.5 0  14 8.5 0  14.5 8.5 0  15 8.5 0  15.5 8.5 0  16 8.5 0  16.5 8.5 0  17 8.5 0  17.5 8.5 0  18 8.5 0  18.5 8.5 0  19 8.5 0  19.5 8.5 0  20 8.5 0  0 9 0  0.5 9 0  1 9 0  1.5 9 0  2 9 0  2.5 9 0  3 9 0  3.5 9 0  4 9 0  4.5 9 0  5 9 0  5.5 9 0  6 9 0  6.5 9 0  7 9 0  7.5 9 0  8 9 0  8.5 9 0  9 9 0  9.5 9 0  10 9 0  10.5 9 0  11 9 0  11.5 9 0  12 9 0  12.5 9 0  13 9 0  13.5 9 0  14 9 0  14.5 9 0  15 9 0  15.5 9 0  16 9 0  16.5 9 0  17 9 0  17.5 9 0  18 9 0  18.5 9 0  19 9 0  19.5 9 0  20 9 0  0 9.5 0  0.5 9.5 0  1 9.5 0  1.5 9.5 0  2 9.5 0  2.5 9.5 0  3 9.5 0  3.5 9.5 0  4 9.5 0  4.5 9.5 0  5 9.5 0  5.5 9.5 0  6 9.5 0  6.5 9.5 0  7 9.5 0  7.5 9.5 0  8 9.5 0  8.5 9.5 0  9 9.5 0  9.5 9.5 0  10 9.5 0  10.5 9.5 0  11 9.5 0  11.5 9.5 0  12 9.5 0  12.5 9.5 0  13 9.5 0  13.5 9.5 0  14 9.5 0  14.5 9.5 0  15 9.5 0  15.5 9.5 0  16 9.5 0  16.5 9.5 0  17 9.5 0  17.5 9.5 0  18 9.5 0  18.5 9.5 0  19 9.5 0  19.5 9.5 0  20 9.5 0  0 10 0  0.5 10 0  1 10 0  1.5 10 0  2 10 0  2.5 10 0  3 10 0  3.5 10 0  4 10 0  4.5 10 0  5 10 0  5.5 10 0  6 10 0  6.5 10 0  7 10 0  7.5 10 0  8 10 0  8.5 10 0  9 10 0  9.5 10 0  10 10 0  10.5 10 0  11 10 0  11.5 10 0  12 10 0  12.5 10 0  13 10 0  13.5 10 0  14 10 0  14.5 10 0  15 10 0  15.5 10 0  16 10 0  16.5 10 0  17 10 0  17.5 10 0  18 10 0  18.5 10 0  19 10 0  19.5 10 0  20 10 0  0 10.5 0  0.5 10.5 0  1 10.5 0  1.5 10.5 0  2 10.5 0  2.5 10.5 0  3 10.5 0  3.5 10.5 0  4 10.5 0  4.5 10.5 0  5 10.5 0  5.5 10.5 0  6 10.5 0  6.5 10.5 0  7 10.5 0  7.5 10.5 0  8 10.5 0  8.5 10.5 0  9 10.5 0  9.5 10.5 0  10 10.5 0  10.5 10.5 0  11 10.5 0  11.5 10.5 0  12 10.5 0  12.5 10.5 0  13 10.5 0  13.5 10.5 0  14 10.5 0  14.5 10.5 0  15 10.5 0  15.5 10.5 0  16 10.5 0  16.5 10.5 0  17 10.5 0  17.5 10.5 0  18 10.5 0  18.5 10.5 0  19 10.5 0  19.5 10.5 0  20 10.5 0  0 11 0  0.5 11 0  1 11 0  1.5 11 0  2 11 0  2.5 11 0  3 11 0  3.5 11 0  4 11 0  4.5 11 0  5 11 0  5.5 11 0  6 11 0  6.5 11 0  7 11 0  7.5 11 0  8 11 0  8.5 11 0  9 11 0  9.5 11 0  10 11 0  10.5 11 0  11 11 0  11.5 11 0  12 11 0  12.5 11 0  13 11 0  13.5 11 0  14 11 0  14.5 11 0  15 11 0  15.5 11 0  16 11 0  16.5 11 0  17 11 0  17.5 11 0  18 11 0  18.5 11 0  19 11 0  19.5 11 0  20 11 0  0 11.5 0  0.5 11.5 0  1 11.5 0  1.5 11.5 0  2 11.5 0  2.5 11.5 0  3 11.5 0  3.5 11.5 0  4 11.5 0  4.5 11.5 0  5 11.5 0  5.5 11.5 0  6 11.5 0  6.5 11.5 0  7 11.5 0  7.5 11.5 0  8 11.5 0  8.5 11.5 0  9 11.5 0  9.5 11.5 0  10 11.5 0  10.5 11.5 0  11 11.5 0  11.5 11.5 0  12 11.5 0  12.5 11.5 0  13 11.5 0  13.5 11.5 0  14 11.5 0  14.5 11.5 0  15 11.5 0  15.5 11.5 0  16 11.5 0  16.5 11.5 0  17 11.5 0  17.5 11.5 0  18 11.5 0  18.5 11.5 0  19 11.5 0  19.5 11.5 0  20 11.5 0  0 12 0  0.5 12 0  1 12 0  1.5 12 0  2 12 0  2.5 12 0  3 12 0  3.5 12 0  4 12 0  4.5 12 0  5 12 0  5.5 12 0  6 12 0  6.5 12 0  7 12 0  7.5 12 0  8 12 0  8.5 12 0  9 12 0  9.5 12 0  10 12 0  10.5 12 0  11 12 0  11.5 12 0  12 12 0  12.5 12 0  13 12 0  13.5 12 0  14 12 0  14.5 12 0  
[...]
<PointData  Vectors="f_2975-0"> 
<DataArray  type="Float64"  Name="f_2975-0"  NumberOfComponents="3" format="ascii">0.0000000000000000e+00 0.0000000000000000e+00 0.0000000000000000e+00  -1.1435958662878648e-06 0.0000000000000000e+00 0.0000000000000000e+00  -5.2283544110702018e-06 0.0000000000000000e+00 0.0000000000000000e+00  -1.6510723472100648e-05 0.0000000000000000e+00 0.0000000000000000e+00  -3.8581546965901352e-05 0.0000000000000000e+00 0.0000000000000000e+00  -7.4934613810374894e-05 0.0000000000000000e+00 0.0000000000000000e+00  -1.2898616392086529e-04 0.0000000000000000e+00 0.0000000000000000e+00  -2.0405061561999273e-04 0.0000000000000000e+00 0.0000000000000000e+00  -3.0331080201133494e-04 0.0000000000000000e+00 0.0000000000000000e+00  -4.2978342550184170e-04 0.0000000000000000e+00 0.0000000000000000e+00  -5.8627782627069548e-04 0.0000000000000000e+00 0.0000000000000000e+00  -7.7534580560868261e-04 0.0000000000000000e+00 0.0000000000000000e+00  -9.9921974461167893e-04 0.0000000000000000e+00 0.0000000000000000e+00  -1.2597355333148275e-03 0.0000000000000000e+00 0.0000000000000000e+00  -1.5582358890536905e-03 0.0000000000000000e+00 0.0000000000000000e+00  -1.8954484851493481e-03 0.0000000000000000e+00 0.0000000000000000e+00  -2.2713319110792582e-03 0.0000000000000000e+00 0.0000000000000000e+00  -2.6848808278842158e-03 0.0000000000000000e+00 0.0000000000000000e+00  -3.1338797633992596e-03 0.0000000000000000e+00 0.0000000000000000e+00  -3.6145928227926112e-03 0.0000000000000000e+00 0.0000000000000000e+00  -4.1213742053410642e-03 0.0000000000000000e+00 0.0000000000000000e+00  -4.6461818750894853e-03 0.0000000000000000e+00 0.0000000000000000e+00  -5.1779741116237303e-03 0.0000000000000000e+00 0.0000000000000000e+00  -5.7019660635789712e-03 0.0000000000000000e+00 0.0000000000000000e+00  -6.1987209353220277e-03 0.0000000000000000e+00 0.0000000000000000e+00  -6.6430481225906585e-03 0.0000000000000000e+00 0.0000000000000000e+00  -7.0026784688252486e-03 0.0000000000000000e+00 0.0000000000000000e+00  -7.2366847047444696e-03 0.0000000000000000e+00 0.0000000000000000e+00  -7.2936127197421119e-03 0.0000000000000000e+00 0.0000000000000000e+00  -7.1092859639865971e-03 0.0000000000000000e+00 0.0000000000000000e+00  -6.6042399665329418e-03 0.0000000000000000e+00 0.0000000000000000e+00  -5.6807351229481292e-03 0.0000000000000000e+00 0.0000000000000000e+00  -4.2192813022397455e-03 0.0000000000000000e+00 0.0000000000000000e+00  -2.0745842144265217e-03 0.0000000000000000e+00 0.0000000000000000e+00  9.2921385823635180e-04 0.0000000000000000e+00 0.0000000000000000e+00  5.0041847761741051e-03 0.0000000000000000e+00 0.0000000000000000e+00  1.0405434994558382e-02 0.0000000000000000e+00 0.0000000000000000e+00  1.7439530117771700e-02 0.0000000000000000e+00 0.0000000000000000e+00  2.6475278084784420e-02 0.0000000000000000e+00 0.0000000000000000e+00  3.7958624436627779e-02 0.0000000000000000e+00 0.0000000000000000e+00  5.2437761822312703e-02 0.0000000000000000e+00 0.0000000000000000e+00  0.0000000000000000e+00 -1.1435958715590010e-06 0.0000000000000000e+00  1.2785295332790099e-06 1.2785295296690713e-06 0.0000000000000000e+00  -1.1848483460293348e-06 7.0373335581440315e-06 0.0000000000000000e+00  -1.0749714858457090e-05 1.6178390272281363e-05 0.0000000000000000e+00  -3.1042061736487184e-05 2.8805155836748355e-05 0.0000000000000000e+00  -6.5594337831678968e-05 4.4922660096797116e-05 0.0000000000000000e+00  -1.1783891976803911e-04 6.4480424607782236e-05 0.0000000000000000e+00  -1.9109761136904633e-04 8.7396661195930379e-05 0.0000000000000000e+00  -2.8855795247002190e-04 1.1356630431869937e-04 0.0000000000000000e+00  -4.1324086239200047e-04 1.4286273595668543e-04 0.0000000000000000e+00  -5.6796024360050669e-04 1.7513733299776569e-04 0.0000000000000000e+00  -7.5527316739840730e-04 2.1021825564976774e-04 0.0000000000000000e+00  -9.7741817014350592e-04 2.4790896340983793e-04 0.0000000000000000e+00  -1.2362382717229852e-03 2.8798665258411533e-04 0.0000000000000000e+00  -1.5330843291184275e-03 3.3020072254822839e-04 0.0000000000000000e+00  -1.8686931572560017e-03 3.7427135503504403e-04 0.0000000000000000e+00  -2.2430334404065179e-03 4.1988828824869096e-04 0.0000000000000000e+00  -2.6551107961609844e-03 4.6670987222385439e-04 0.0000000000000000e+00  -3.1027214329356519e-03 5.1436249809688782e-04 0.0000000000000000e+00  -3.5821416726475133e-03 5.6244049981307785e-04 0.0000000000000000e+00  -4.0877382258057808e-03 6.1050663076354624e-04 0.0000000000000000e+00  -4.6114815638694847e-03 6.5809321825477623e-04 0.0000000000000000e+00  -5.1423421139750363e-03 7.0470409492225930e-04 0.0000000000000000e+00  -5.6655463986817053e-03 7.4981739590493336e-04 0.0000000000000000e+00  -6.1616677529051098e-03 7.9288929262995051e-04 0.0000000000000000e+00  -6.6055239360758985e-03 8.3335870741077013e-04 0.0000000000000000e+00  -6.9648518124028431e-03 8.7065301563366254e-04 0.0000000000000000e+00  -7.1987271584585304e-03 9.0419469391595430e-04 0.0000000000000000e+00  -7.2556952335416760e-03 9.3340881356105407e-04 0.0000000000000000e+00  -7.0715743811837458e-03 9.5773121034220293e-04 0.0000000000000000e+00  -6.5668895893294076e-03 9.7661708875818867e-04 0.0000000000000000e+00  -5.6438840712267416e-03 9.8954974790771985e-04 0.0000000000000000e+00  -4.1830423003498853e-03 9.9604905394227441e-04 0.0000000000000000e+00  -2.0390343675166368e-03 9.9567922832587076e-04 0.0000000000000000e+00  9.6404550053414458e-04 9.8805544059348666e-04 0.0000000000000000e+00  5.0383305491955022e-03 9.7284850484806787e-04 0.0000000000000000e+00  1.0438994867992407e-02 9.4978660166262639e-04 0.0000000000000000e+00  1.7472633583980907e-02 9.1865276112137919e-04 0.0000000000000000e+00  2.6507815159511013e-02 8.7927896015504113e-04 0.0000000000000000e+00  3.7988638619894467e-02 8.3154389538186795e-04 0.0000000000000000e+00  5.2451515064244891e-02 7.7531315259314886e-04 0.0000000000000000e+00  0.0000000000000000e+00 -5.2283544198237367e-06 0.0000000000000000e+00  7.0373335595125894e-06 -1.1848483451210319e-06 0.0000000000000000e+00  1.0057475954008356e-05 1.0057475955771130e-05 0.0000000000000000e+00  5.8957610581319063e-06 2.8367892203514639e-05 0.0000000000000000e+00  -8.9963320423954472e-06 5.3713981067594289e-05 0.0000000000000000e+00  -3.8137568801281009e-05 8.6030152525477845e-05 0.0000000000000000e+00  -8.4966053018676417e-05 1.2520572039444582e-04 0.0000000000000000e+00  -1.5281300459823536e-04 1.7108341356459513e-04 0.0000000000000000e+00  -2.4487622088005295e-04 2.2346074732633236e-04 0.0000000000000000e+00  -3.6418791060540930e-04 2.8209063209077732e-04 0.0000000000000000e+00  -5.1357491947462777e-04 3.4668054899264023e-04 0.0000000000000000e+00  -6.9560943998440831e-04 4.1689062977899740e-04 0.0000000000000000e+00  -9.1254767091322763e-04 4.9233108484348612e-04 0.0000000000000000e+00  -1.1662530580127423e-03 5.7255932442587467e-04 0.0000000000000000e+00  -1.4580997493878981e-03 6.5707702902269933e-04 0.0000000000000000e+00  -1.7888507069297507e-03 7.4532737626893111e-04 0.0000000000000000e+00  -2.1585034969475018e-03 8.3669261302108376e-04 0.0000000000000000e+00  -2.5660951161974913e-03 9.3049215980261623e-04 0.0000000000000000e+00  -3.0094552859279700e-03 1.0259814407916053e-03 0.0000000000000000e+00  -3.4848954768969820e-03 1.1223516405782653e-03 0.0000000000000000e+00  -3.9868185453909829e-03 1.2187305948259104e-03 0.0000000000000000e+00  -4.5072313214333708e-03 1.3141850224906483e-03 0.0000000000000000e+00  -5.0351398751156380e-03 1.4077243002160998e-03 0.0000000000000000e+00  -5.5558045909991942e-03 1.4983059606463788e-03 0.0000000000000000e+00  -6.0498296969358828e-03 1.5848430647370858e-03 0.0000000000000000e+00  -6.4920595873654155e-03 1.6662135494771753e-03 0.0000000000000000e+00  -6.8502521428946478e-03 1.7412715861381031e-03 0.0000000000000000e+00  -7.0834971397992332e-03 1.8088608976932160e-03 0.0000000000000000e+00  -7.1403454220855421e-03 1.8678298790037796e-03 0.0000000000000000e+00  -6.9566111410485970e-03 1.9170482407463508e-03 0.0000000000000000e+00  -6.4528040254189685e-03 1.9554247622865918e-03 0.0000000000000000e+00  -5.5311397884894647e-03 1.9819255936436874e-03 0.0000000000000000e+00  -4.0720621997307194e-03 1.9955923895592820e-03 0.0000000000000000e+00  -1.9301869537974997e-03 1.9955593652257902e-03 0.0000000000000000e+00  1.0704590680755094e-03 1.9810680491531827e-03 0.0000000000000000e+00  5.1420853700642460e-03 1.9514778326417711e-03 0.0000000000000000e+00  1.0539938451367201e-02 1.9062686002648073e-03 0.0000000000000000e+00  1.7570646521484004e-02 1.8450257428925456e-03 0.0000000000000000e+00  2.6602680320690998e-02 1.7673748235936847e-03 0.0000000000000000e+00  3.8079736866823678e-02 1.6727406085605379e-03 0.0000000000000000e+00  5.2538099332953142e-02 1.5594403385774140e-03 0.0000000000000000e+00  0.0000000000000000e+00 -1.6510723484678172e-05 0.0000000000000000e+00  1.6178390277142740e-05 -1.0749714855952565e-05 0.0000000000000000e+00  2.8367892207384533e-05 5.8957610542067793e-06 0.0000000000000000e+00  3.3280656573297704e-05 3.3280656566538991e-05 0.0000000000000000e+00  2.7432180895506424e-05 7.1294932111391963e-05 0.0000000000000000e+00  7.3231246276646531e-06 1.1980190955952488e-04 0.0000000000000000e+00  -3.0481631758668527e-05 1.7861394376150511e-04 0.0000000000000000e+00  -8.9318942146272227e-05 2.4748682935001672e-04 0.0000000000000000e+00  -1.7239779884495860e-04 3.2611660172348180e-04 0.0000000000000000e+00  -2.8276601997147261e-04 4.1413634189593854e-04 0.0000000000000000e+00  -4.2327024335543769e-04 5.1111265720360239e-04 0.0000000000000000e+00  -5.9650677037964583e-04 6.1654175462543882e-04 0.0000000000000000e+00  -8.0476045359541878e-04 7.2984516220969318e-04 0.0000000000000000e+00  -1.0499281309939640e-03 8.5036525221508482e-04 0.0000000000000000e+00  -1.3334221771078483e-03 9.7736077338562901e-04 0.0000000000000000e+00  -1.6560485765170115e-03 1.1100026281160643e-03 0.0000000000000000e+00  -2.0178525180385666e-03 1.2473701488576118e-03 0.0000000000000000e+00  -2.4179228448532606e-03 1.3884481447259684e-03 0.0000000000000000e+00  -2.8541447742748555e-03 1.5321250057843804e-03 0.0000000000000000e+00  -3.3228881337058788e-03 1.6771921672555990e-03 0.0000000000000000e+00  -3.8186159803714893e-03 1.8223452460583555e-03 0.0000000000000000e+00  -4.3333959392856305e-03 1.9661871646413482e-03 0.0000000000000000e+00  -4.8562939870727302e-03 2.1072335677668067e-03 0.0000000000000000e+00  -5.3726278232098419e-03 2.2439208134600341e-03 0.0000000000000000e+00  -5.8630544995042005e-03 2.3746167750285114e-03 0.0000000000000000e+00  -6.3024646856417012e-03 2.4976346238075302e-03 0.0000000000000000e+00  -6.6586538249829384e-03 2.6112496681414137e-03 0.0000000000000000e+00  -6.8907383401260779e-03 2.7137192000934755e-03 0.0000000000000000e+00  -6.9472826389247195e-03 2.8033051467682623e-03 0.0000000000000000e+00  -6.7640993140636457e-03 2.8782991354817885e-03 0.0000000000000000e+00  -6.2616795985342959e-03 2.9370493608909731e-03 0.0000000000000000e+00  -5.3422023050442554e-03 2.9779883804114875e-03 0.0000000000000000e+00  -3.8860549576701093e-03 2.9996606385187244e-03 0.0000000000000000e+00  -1.7477775820988058e-03 3.0007480597335910e-03 0.0000000000000000e+00  1.2486965562813473e-03 2.9800912585553983e-03 0.0000000000000000e+00  5.3156839897212328e-03 2.9367022637435485e-03 0.0000000000000000e+00  1.0708540749389791e-02 2.8697607126818778e-03 0.0000000000000000e+00  1.7733982211539292e-02 2.7785754946567198e-03 0.0000000000000000e+00  2.6760487752532661e-02 2.6624694905987610e-03 0.0000000000000000e+00  3.8231567609941973e-02 2.5204967469290344e-03 0.0000000000000000e+00  5.2682918876278427e-02 2.3508664730105518e-03 0.0000000000000000e+00  0.0000000000000000e+00 -3.8581546977301399e-05 0.0000000000000000e+00  2.8805155833075803e-05 -3.1042061738937515e-05 0.0000000000000000e+00  5.3713981069875999e-05 -8.9963320434911792e-06 0.0000000000000000e+00  7.1294932110986471e-05 2.7432180891414106e-05 0.0000000000000000e+00  7.8084649785125832e-05 7.8084649787535878e-05 0.0000000000000000e+00  7.0598225696632977e-05 1.4276372008693180e-04 0.0000000000000000e+00  4.5402286718653997e-05 2.2121077035186401e-04 0.0000000000000000e+00  -8.4661640553009172e-07 3.1309724599374911e-04 0.0000000000000000e+00  -7.1370684814001760e-05 4.1801916530373982e-04 0.0000000000000000e+00  -1.6923716792435515e-04 5.3549189537667517e-04 0.0000000000000000e+00  -2.9731840111201554e-04 6.6494455304698830e-04 0.0000000000000000e+00  -4.5824284784717569e-04 8.0571400221413677e-04 0.0000000000000000e+00  -6.5433421904602255e-04 9.5703856834443077e-04 0.0000000000000000e+00  -8.8753509346260425e-04 1.1180516448312955e-03 0.0000000000000000e+00  -1.1593105486872872e-03 1.2877754087877436e-03 0.0000000000000000e+00  -1.4705261594207260e-03 1.4651149064055713e-03 0.0000000000000000e+00  -1.8212933198819921e-03 1.6488528084323052e-03 0.0000000000000000e+00  -2.2107731895277681e-03 1.8376451727200559e-03 0.0000000000000000e+00  -2.6369286441289678e-03 2.0300185838783794e-03 0.0000000000000000e+00  -3.0962114519925200e-03 2.2243690668279897e-03 0.0000000000000000e+00  -3.5831695224746957e-03 2.4189631900011820e-03 0.0000000000000000e+00  -4.0899565493141259e-03 2.6119417820094325e-03 0.0000000000000000e+00  -4.6057237759509319e-03 2.8013266773604900e-03 0.0000000000000000e+00  -5.1158710383627549e-03 2.9850308792259000e-03 0.0000000000000000e+00  -5.6011317876352874e-03 3.1608724735300050e-03 0.0000000000000000e+00  -6.0364645214871122e-03 3.3265925444438387e-03 0.0000000000000000e+00  -6.3897209523860994e-03 3.4798772208613424e-03 0.0000000000000000e+00  -6.6200591680808949e-03 3.6183838215958501e-03 0.0000000000000000e+00  -6.6760676545560838e-03 3.7397708594997521e-03 0.0000000000000000e+00  -6.4935627168713726e-03 3.8417314054682728e-03 0.0000000000000000e+00  -5.9930165288919861e-03 3.9220289958980768e-03 0.0000000000000000e+00  -5.0765642483032464e-03 3.9785348749266239e-03 0.0000000000000000e+00  -3.6245241921152448e-03 4.0092648594744762e-03 0.0000000000000000e+00  -1.4913420000929214e-03 4.0124134088028087e-03 0.0000000000000000e+00  1.4991660755937692e-03 3.9863813593995698e-03 0.0000000000000000e+00  5.5594497707783918e-03 3.9297917908951568e-03 0.0000000000000000e+00  1.0945000613585491e-02 3.8414847678123823e-03 0.0000000000000000e+00  1.7962643064700815e-02 3.7204752668311527e-03 0.0000000000000000e+00  2.6980883107793636e-02 3.5658510300275626e-03 0.0000000000000000e+00  3.8443085885702943e-02 3.3765944122673267e-03 0.0000000000000000e+00  5.2884576082158255e-02 3.1514003569304838e-03 0.0000000000000000e+00  0.0000000000000000e+00 -7.4934613819590572e-05 0.0000000000000000e+00  4.4922660098512059e-05 -6.5594337836789735e-05 0.0000000000000000e+00  8.6030152530968299e-05 -3.8137568804572993e-05 0.0000000000000000e+00  1.1980190956096059e-04 7.3231246250230479e-06 0.0000000000000000e+00  1.4276372008781738e-04 7.0598225700771959e-05 0.0000000000000000e+00  1.5143834851114423e-04 1.5143834851255852e-04 0.0000000000000000e+00  1.4239235125574625e-04 2.4952032999033376e-04 0.0000000000000000e+00  1.1227400946094788e-04 3.6443718136513207e-04 0.0000000000000000e+00  5.7845268671375986e-05 4.9569071533395973e-04 0.0000000000000000e+00  -2.3984550298954648e-05 6.4268451691526084e-04 0.0000000000000000e+00  -1.3611912687976508e-04 8.0471652301593972e-04 0.0000000000000000e+00  -2.8122661535779617e-04 9.8097111536499205e-04 0.0000000000000000e+00  -4.6167916231330559e-04 1.1705108531350787e-03 0.0000000000000000e+00  -6.7947682047962091e-04 1.3722680618417846e-03 0.0000000000000000e+00  -9.3615131740152051e-04 1.5850365486151147e-03 0.0000000000000000e+00  -1.2326439895860653e-03 1.8074637601185140e-03 0.0000000000000000e+00  -1.5691507941128521e-03 2.0380437461857285e-03 0.0000000000000000e+00  -1.9449256535607354e-03 2.2751113379902840e-03 0.0000000000000000e+00  -2.3580314753591145e-03 2.5168379939874215e-03 0.0000000000000000e+00  -2.8050260289622670e-03 2.7612298050054911e-03 0.0000000000000000e+00  -3.2805674986392339e-03 3.0061281791667160e-03 0.0000000000000000e+00  -3.7769220155930115e-03 3.2492137431269163e-03 0.0000000000000000e+00  -4.2833528915060303e-03 3.4880139928245915e-03 0.0000000000000000e+00  -4.7853687225239945e-03 3.7199151994071777e-03 0.0000000000000000e+00  -5.2638051015238344e-03 3.9421790167507003e-03 0.0000000000000000e+00  -5.6937124304772373e-03 4.1519641393851000e-03 0.0000000000000000e+00  -6.0430202532445370e-03 4.3463532162182255e-03 0.0000000000000000e+00  -6.2709464909916244e-03 4.5223850284951319e-03 0.0000000000000000e+00  -6.3261176123878696e-03 4.6770916823578304e-03 0.0000000000000000e+00  -6.1443624748046023e-03 4.8075402387804805e-03 0.0000000000000000e+00  -5.6461373125659886e-03 4.9108777962974881e-03 0.0000000000000000e+00  -4.7335306129511617e-03 4.9843785378332686e-03 0.0000000000000000e+00  -3.2867822783810775e-03 5.0254906222893751e-03 0.0000000000000000e+00  -1.1602285947942650e-03 5.0318799835746318e-03 0.0000000000000000e+00  1.8224508875303721e-03 5.0014669890271427e-03 0.0000000000000000e+00  5.8738619102065952e-03 4.9324503695818214e-03 0.0000000000000000e+00  1.1249656069985367e-02 4.8233109065536194e-03 0.0000000000000000e+00  1.8256796073577813e-02 4.6727861127798939e-03 0.0000000000000000e+00  2.7263868471362203e-02 4.4798111710337941e-03 0.0000000000000000e+00  3.8714241523113001e-02 4.2434437573232167e-03 0.0000000000000000e+00  5.3143275117000163e-02 3.9628549063551958e-03 0.0000000000000000e+00  0.0000000000000000e+00 -1.2898616392987785e-04 0.0000000000000000e+00  6.4480424603515169e-05 -1.1783891977390596e-04 0.0000000000000000e+00  1.2520572038888763e-04 -8.4966053017097981e-05 0.0000000000000000e+00  1.7861394375392195e-04 -3.0481631757204373e-05 0.0000000000000000e+00  2.2121077034466697e-04 4.5402286717762905e-05 0.0000000000000000e+00  2.4952032998336212e-04 1.4239235126184950e-04 0.0000000000000000e+00  2.6010757210311248e-04 2.6010757210802137e-04 0.0000000000000000e+00  2.4961142975194226e-04 3.9806942172317865e-04 0.0000000000000000e+00  2.1477601282340766e-04 5.5569298068001722e-04 0.0000000000000000e+00  1.5248384806386015e-04 7.3227816320220040e-04 0.0000000000000000e+00  5.9794903825575394e-05 9.2700045671521619e-04 0.0000000000000000e+00  -6.6005524114638478e-05 1.1389010711610524e-03 0.0000000000000000e+00  -2.2734690816427142e-04 1.3668766226932934e-03 0.0000000000000000e+00  -4.2629784506064225e-04 1.6096685903122172e-03 0.0000000000000000e+00  -6.6447007240139772e-04 1.8658528565513165e-03 0.0000000000000000e+00  -9.4289640349037418e-04 2.1338297030542835e-03 0.0000000000000000e+00  -1.2618754411732002e-03 2.4118146896392450e-03 0.0000000000000000e+00  -1.6207742751547058e-03 2.6978309019479907e-03 0.0000000000000000e+00  -2.0177784541898273e-03 2.9897031080289458e-03 0.0000000000000000e+00  -2.4495763703286369e-03 3.2850544142971178e-03 0.0000000000000000e+00  -2.9109628339206374e-03 3.5813060518717996e-03 0.0000000000000000e+00  -3.3943441152051329e-03 3.8756809506342157e-03 0.0000000000000000e+00  -3.8891241625999425e-03 4.1652117631984049e-03 0.0000000000000000e+00  -4.3809491761767402e-03 4.4467539779984222e-03 0.0000000000000000e+00  -4.8507853108418772e-03 4.7170047007850267e-03 0.0000000000000000e+00  -5.2738020707959665e-03 4.9725275783890788e-03 0.0000000000000000e+00  -5.6180319244798632e-03 5.2097841780292045e-03 0.0000000000000000e+00  -5.8427746753661851e-03 5.4251719098430563e-03 0.0000000000000000e+00  -5.8967128232198362e-03 5.6150682794185091e-03 0.0000000000000000e+00  -5.7157009081820337e-03 5.7758808716762569e-03 0.0000000000000000e+00  -5.2201866291136110e-03 5.9041019874224296e-03 0.0000000000000000e+00  -4.3122128615790565e-03 5.9963662703760153e-03 0.0000000000000000e+00  -2.8719354514325050e-03 6.0495089676639684e-03 0.0000000000000000e+00  -7.5356892042321251e-04 6.0606216602000773e-03 0.0000000000000000e+00  2.2193629850786423e-03 6.0271014098803597e-03 0.0000000000000000e+00  6