<?xml version="1.0"?>
<VTKFile type="UnstructuredGrid"  version="0.1"  >
<UnstructuredGrid>
<Piece  NumberOfPoints="1681" NumberOfCells="3200">
<Points>
<DataArray  type="Float64"  NumberOfComponents="3"  format="ascii">0 0 0  0.5 0 0  1 0 0  1.5 0 0  2 0 0  2.5 0 0  3 0 0  3.5 0 0  4 0 0  4.5 0 0  5 0 0  5.5 0 0  6 0 0  6.5 0 0  7 0 0  7.5 0 0  8 0 0  8.5 0 0  9 0 0  9.5 0 0  10 0 0  10.5 0 0  11 0 0  11.5 0 0  12 0 0  12.5 0 0  13 0 0  13.5 0 0  14 0 0  14.5 0 0  15 0 0  15.5 0 0  16 0 0  16.5 0 0  17 0 0  17.5 0 0  18 0 0  18.5 0 0  19 0 0  19.5 0 0  20 0 0  0 0.5 0  0.5 0.5 0  1 0.5 0  1.5 0.5 0  2 0.5 0  2.5 0.5 0  3 0.5 0  3.5 0.5 0  4 0.5 0  4.5 0.5 0  5 0.5 0  5.5 0.5 0  6 0.5 0  6.5 0.5 0  7 0.5 0  7.5 0.5 0  8 0.5 0  8.5 0.5 0  9 0.5 0  9.5 0.5 0  10 0.5 0  10.5 0.5 0  11 0.5 0  11.5 0.5 0  12 0.5 0  12.5 0.5 0  13 0.5 0  13.5 0.5 0  14 0.5 0  14.5 0.5 0  15 0.5 0  15.5 0.5 0  16 0.5 0  16.5 0.5 0  17 0.5 0  17.5 0.5 0  18 0.5 0  18.5 0.5 0  19 0.5 0  19.5 0.5 0  20 0.5 0  0 1 0  0.5 1 0  1 1 0  1.5 1 0  2 1 0  2.5 1 0  3 1 0  3.5 1 0  4 1 0  4.5 1 0  5 1 0  5.5 1 0  6 1 0  6.5 1 0  7 1 0  7.5 1 0  8 1 0  8.5 1 0  9 1 0  9.5 1 0  10 1 0  10.5 1 0  11 1 0  11.5 1 0  12 1 0  12.5 1 0  13 1 0  13.5 1 0  14 1 0  14.5 1 0  15 1 0  15.5 1 0  16 1 0  16.5 1 0  17 1 0  17.5 1 0  18 1 0  18.5 1 0  19 1 0  19.5 1 0  20 1 0  0 1.5 0  0.5 1.5 0  1 1.5 0  1.5 1.5 0  2 1.5 0  2.5 1.5 0  3 1.5 0  3.5 1.5 0  4 1.5 0  4.5 1.5 0  5 1.5 0  5.5 1.5 0  6 1.5 0  6.5 1.5 0  7 1.5 0  7.5 1.5 0  8 1.5 0  8.5 1.5 0  9 1.5 0  9.5 1.5 0  10 1.5 0  10.5 1.5 0  11 1.5 0  11.5 1.5 0  12 1.5 0  12.5 1.5 0  13 1.5 0  13.5 1.5 0  14 1.5 0  14.5 1.5 0  15 1.5 0  15.5 1.5 0  16 1.5 0  16.5 1.5 0  17 1.5 0  17.5 1.5 0  18 1.5 0  18.5 1.5 0  19 1.5 0  19.5 1.5 0  20 1.5 0  0 2 0  0.5 2 0  1 2 0  1.5 2 0  2 2 0  2.5 2 0  3 2 0  3.5 2 0  4 2 0  4.5 2 0  5 2 0  5.5 2 0  6 2 0  6.5 2 0  7 2 0  7.5 2 0  8 2 0  8.5 2 0  9 2 0  9.5 2 0  10 2 0  10.5 2 0  11 2 0  11.5 2 0  12 2 0  12.5 2 0  13 2 0  13.5 2 0  14 2 0  14.5 2 0  15 2 0  15.5 2 0  16 2 0  16.5 2 0  17 2 0  17.5 2 0  18 2 0  18.5 2 0  19 2 0  19.5 2 0  20 2 0  0 2.5 0  0.5 2.5 0  1 2.5 0  1.5 2.5 0  2 2.5 0  2.5 2.5 0  3 2.5 0  3.5 2.5 0  4 2.5 0  4.5 2.5 0  5 2.5 0  5.5 2.5 0  6 2.5 0  6.5 2.5 0  7 2.5 0  7.5 2.5 0  8 2.5 0  8.5 2.5 0  9 2.5 0  9.5 2.5 0  10 2.5 0  10.5 2.5 0  11 2.5 0  11.5 2.5 0  12 2.5 0  12.5 2.5 0  13 2.5 0  13.5 2.5 0  14 2.5 0  14.5 2.5 0  15 2.5 0  15.5 2.5 0  16 2.5 0  16.5 2.5 0  17 2.5 0  17.5 2.5 0  18 2.5 0  18.5 2.5 0  19 2.5 0  19.5 2.5 0  20 2.5 0  0 3 0  0.5 3 0  1 3 0  1.5 3 0  2 3 0  2.5 3 0  3 3 0  3.5 3 0  4 3 0  4.5 3 0  5 3 0  5.5 3 0  6 3 0  6.5 3 0  7 3 0  7.5 3 0  8 3 0  8.5 3 0  9 3 0  9.5 3 0  10 3 0  10.5 3 0  11 3 0  11.5 3 0  12 3 0  12.5 3 0  13 3 0  13.5 3 0  14 3 0  14.5 3 0  15 3 0  15.5 3 0  16 3 0  16.5 3 0  17 3 0  17.5 3 0  18 3 0  18.5 3 0  19 3 0  19.5 3 0  20 3 0  0 3.5 0  0.5 3.5 0  1 3.5 0  1.5 3.5 0  2 3.5 0  2.5 3.5 0  3 3.5 0  3.5 3.5 0  4 3.5 0  4.5 3.5 0  5 3.5 0  5.5 3.5 0  6 3.5 0  6.5 3.5 0  7 3.5 0  7.5 3.5 0  8 3.5 0  8.5 3.5 0  9 3.5 0  9.5 3.5 0  10 3.5 0  10.5 3.5 0  11 3.5 0  11.5 3.5 0  12 3.5 0  12.5 3.5 0  13 3.5 0  13.5 3.5 0  14 3.5 0  14.5 3.5 0  15 3.5 0  15.5 3.5 0  16 3.5 0  16.5 3.5 0  17 3.5 0  17.5 3.5 0  18 3.5 0  18.5 3.5 0  19 3.5 0  19.5 3.5 0  20 3.5 0  0 4 0  0.5 4 0  1 4 0  1.5 4 0  2 4 0  2.5 4 0  3 4 0  3.5 4 0  4 4 0  4.5 4 0  5 4 0  5.5 4 0  6 4 0  6.5 4 0  7 4 0  7.5 4 0  8 4 0  8.5 4 0  9 4 0  9.5 4 0  10 4 0  10.5 4 0  11 4 0  11.5 4 0  12 4 0  12.5 4 0  13 4 0  13.5 4 0  14 4 0  14.5 4 0  15 4 0  15.5 4 0  16 4 0  16.5 4 0  17 4 0  17.5 4 0  18 4 0  18.5 4 0  19 4 0  19.5 4 0  20 4 0  0 4.5 0  0.5 4.5 0  1 4.5 0  1.5 4.5 0  2 4.5 0  2.5 4.5 0  3 4.5 0  3.5 4.5 0  4 4.5 0  4.5 4.5 0  5 4.5 0  5.5 4.5 0  6 4.5 0  6.5 4.5 0  7 4.5 0  7.5 4.5 0  8 4.5 0  8.5 4.5 0  9 4.5 0  9.5 4.5 0  10 4.5 0  10.5 4.5 0  11 4.5 0  11.5 4.5 0  12 4.5 0  12.5 4.5 0  13 4.5 0  13.5 4.5 0  14 4.5 0  14.5 4.5 0  15 4.5 0  15.5 4.5 0  16 4.5 0  16.5 4.5 0  17 4.5 0  17.5 4.5 0  18 4.5 0  18.5 4.5 0  19 4.5 0  19.5 4.5 0  20 4.5 0  0 5 0  0.5 5 0  1 5 0  1.5 5 0  2 5 0  2.5 5 0  3 5 0  3.5 5 0  4 5 0  4.5 5 0  5 5 0  5.5 5 0  6 5 0  6.5 5 0  7 5 0  7.5 5 0  8 5 0  8.5 5 0  9 5 0  9.5 5 0  10 5 0  10.5 5 0  11 5 0  11.5 5 0  12 5 0  12.5 5 0  13 5 0  13.5 5 0  14 5 0  14.5 5 0  15 5 0  15.5 5 0  16 5 0  16.5 5 0  17 5 0  17.5 5 0  18 5 0  18.5 5 0  19 5 0  19.5 5 0  20 5 0  0 5.5 0  0.5 5.5 0  1 5.5 0  1.5 5.5 0  2 5.5 0  2.5 5.5 0  3 5.5 0  3.5 5.5 0  4 5.5 0  4.5 5.5 0  5 5.5 0  5.5 5.5 0  6 5.5 0  6.5 5.5 0  7 5.5 0  7.5 5.5 0  8 5.5 0  8.5 5.5 0  9 5.5 0  9.5 5.5 0  10 5.5 0  10.5 5.5 0  11 5.5 0  11.5 5.5 0  12 5.5 0  12.5 5.5 0  13 5.5 0  13.5 5.5 0  14 5.5 0  14.5 5.5 0  15 5.5 0  15.5 5.5 0  16 5.5 0  16.5 5.5 0  17 5.5 0  17.5 5.5 0  18 5.5 0  18.5 5.5 0  19 5.5 0  19.5 5.5 0  20 5.5 0  0 6 0  0.5 6 0  1 6 0  1.5 6 0  2 6 0  2.5 6 0  3 6 0  3.5 6 0  4 6 0  4.5 6 0  5 6 0  5.5 6 0  6 6 0  6.5 6 0  7 6 0  7.5 6 0  8 6 0  8.5 6 0  9 6 0  9.5 6 0  10 6 0  10.5 6 0  11 6 0  11.5 6 0  12 6 0  12.5 6 0  13 6 0  13.5 6 0  14 6 0  14.5 6 0  15 6 0  15.5 6 0  16 6 0  16.5 6 0  17 6 0  17.5 6 0  18 6 0  18.5 6 0  19 6 0  19.5 6 0  20 6 0  0 6.5 0  0.5 6.5 0  1 6.5 0  1.5 6.5 0  2 6.5 0  2.5 6.5 0  3 6.5 0  3.5 6.5 0  4 6.5 0  4.5 6.5 0  5 6.5 0  5.5 6.5 0  6 6.5 0  6.5 6.5 0  7 6.5 0  7.5 6.5 0  8 6.5 0  8.5 6.5 0  9 6.5 0  9.5 6.5 0  10 6.5 0  10.5 6.5 0  11 6.5 0  11.5 6.5 0  12 6.5 0  12.5 6.5 0  13 6.5 0  13.5 6.5 0  14 6.5 0  14.5 6.5 0  15 6.5 0  15.5 6.5 0  16 6.5 0  16.5 6.5 0  17 6.5 0  17.5 6.5 0  18 6.5 0  18.5 6.5 0  19 6.5 0  19.5 6.5 0  20 6.5 0  0 7 0  0.5 7 0  1 7 0  1.5 7 0  2 7 0  2.5 7 0  3 7 0  3.5 7 0  4 7 0  4.5 7 0  5 7 0  5.5 7 0  6 7 0  6.5 7 0  7 7 0  7.5 7 0  8 7 0  8.5 7 0  9 7 0  9.5 7 0  10 7 0  10.5 7 0  11 7 0  11.5 7 0  12 7 0  12.5 7 0  13 7 0  13.5 7 0  14 7 0  14.5 7 0  15 7 0  15.5 7 0  16 7 0  16.5 7 0  17 7 0  17.5 7 0  18 7 0  18.5 7 0  19 7 0  19.5 7 0  20 7 0  0 7.5 0  0.5 7.5 0  1 7.5 0  1.5 7.5 0  2 7.5 0  2.5 7.5 0  3 7.5 0  3.5 7.5 0  4 7.5 0  4.5 7.5 0  5 7.5 0  5.5 7.5 0  6 7.5 0  6.5 7.5 0  7 7.5 0  7.5 7.5 0  8 7.5 0  8.5 7.5 0  9 7.5 0  9.5 7.5 0  10 7.5 0  10.5 7.5 0  11 7.5 0  11.5 7.5 0  12 7.5 0  12.5 7.5 0  13 7.5 0  13.5 7.5 0  14 7.5 0  14.5 7.5 0  15 7.5 0  15.5 7.5 0  16 7.5 0  16.5 7.5 0  17 7.5 0  17.5 7.5 0  18 7.5 0  18.5 7.5 0  19 7.5 0  19.5 7.5 0  20 7.5 0  0 8 0  0.5 8 0  1 8 0  1.5 8 0  2 8 0  2.5 8 0  3 8 0  3.5 8 0  4 8 0  4.5 8 0  5 8 0  5.5 8 0  6 8 0  6.5 8 0  7 8 0  7.5 8 0  8 8 0  8.5 8 0  9 8 0  9.5 8 0  10 8 0  10.5 8 0  11 8 0  11.5 8 0  12 8 0  12.5 8 0  13 8 0  13.5 8 0  14 8 0  14.5 8 0  15 8 0  15.5 8 0  16 8 0  16.5 8 0  17 8 0  17.5 8 0  18 8 0  18.5 8 0  19 8 0  19.5 8 0  20 8 0  0 8.5 0  0.5 8.5 0  1 8.5 0  1.5 8.5 0  2 8.5 0  2.5 8.5 0  3 8.5 0  3.5 8.5 0  4 8.5 0  4.5 8.5 0  5 8.5 0  5.5 8.5 0  6 8.5 0  6.5 8.5 0  7 8.5 0  7.5 8.5 0  8 8.5 0  8.5 8.5 0  9 8.5 0  9.5 8.5 0  10 8.5 0  10.5 8.5 0  11 8.5 0  11.5 8.5 0  12 8.5 0  12.5 8.5 0  13 8.5 0  13.5 8.5 0  14 8.5 0  14.5 8.5 0  15 8.5 0  15.5 8.5 0  16 8.5 0  16.5 8.5 0  17 8.5 0  17.5 8.5 0  18 8.5 0  18.5 8.5 0  19 8.5 0  19.5 8.5 0  20 8.5 0  0 9 0  0.5 9 0  1 9 0  1.5 9 0  2 9 0  2.5 9 0  3 9 0  3.5 9 0  4 9 0  4.5 9 0  5 9 0  5.5 9 0  6 9 0  6.5 9 0  7 9 0  7.5 9 0  8 9 0  8.5 9 0  9 9 0  9.5 9 0  10 9 0  10.5 9 0  11 9 0  11.5 9 0  12 9 0  12.5 9 0  13 9 0  13.5 9 0  14 9 0  14.5 9 0  15 9 0  15.5 9 0  16 9 0  16.5 9 0  17 9 0  17.5 9 0  18 9 0  18.5 9 0  19 9 0  19.5 9 0  20 9 0  0 9.5 0  0.5 9.5 0  1 9.5 0  1.5 9.5 0  2 9.5 0  2.5 9.5 0  3 9.5 0  3.5 9.5 0  4 9.5 0  4.5 9.5 0  5 9.5 0  5.5 9.5 0  6 9.5 0  6.5 9.5 0  7 9.5 0  7.5 9.5 0  8 9.5 0  8.5 9.5 0  9 9.5 0  9.5 9.5 0  10 9.5 0  10.5 9.5 0  11 9.5 0  11.5 9.5 0  12 9.5 0  12.5 9.5 0  13 9.5 0  13.5 9.5 0  14 9.5 0  14.5 9.5 0  15 9.5 0  15.5 9.5 0  16 9.5 0  16.5 9.5 0  17 9.5 0  17.5 9.5 0  18 9.5 0  18.5 9.5 0  19 9.5 0  19.5 9.5 0  20 9.5 0  0 10 0  0.5 10 0  1 10 0  1.5 10 0  2 10 0  2.5 10 0  3 10 0  3.5 10 0  4 10 0  4.5 10 0  5 10 0  5.5 10 0  6 10 0  6.5 10 0  7 10 0  7.5 10 0  8 10 0  8.5 10 0  9 10 0  9.5 10 0  10 10 0  10.5 10 0  11 10 0  11.5 10 0  12 10 0  12.5 10 0  13 10 0  13.5 10 0  14 10 0  14.5 10 0  15 10 0  15.5 10 0  16 10 0  16.5 10 0  17 10 0  17.5 10 0  18 10 0  18.5 10 0  19 10 0  19.5 10 0  20 10 0  0 10.5 0  0.5 10.5 0  1 10.5 0  1.5 10.5 0  2 10.5 0  2.5 10.5 0  3 10.5 0  3.5 10.5 0  4 10.5 0  4.5 10.5 0  5 10.5 0  5.5 10.5 0  6 10.5 0  6.5 10.5 0  7 10.5 0  7.5 10.5 0  8 10.5 0  8.5 10.5 0  9 10.5 0  9.5 10.5 0  10 10.5 0  10.5 10.5 0  11 10.5 0  11.5 10.5 0  12 10.5 0  12.5 10.5 0  13 10.5 0  13.5 10.5 0  14 10.5 0  14.5 10.5 0  15 10.5 0  15.5 10.5 0  16 10.5 0  16.5 10.5 0  17 10.5 0  17.5 10.5 0  18 10.5 0  18.5 10.5 0  19 10.5 0  19.5 10.5 0  20 10.5 0  0 11 0  0.5 11 0  1 11 0  1.5 11 0  2 11 0  2.5 11 0  3 11 0  3.5 11 0  4 11 0  4.5 11 0  5 11 0  5.5 11 0  6 11 0  6.5 11 0  7 11 0  7.5 11 0  8 11 0  8.5 11 0  9 11 0  9.5 11 0  10 11 0  10.5 11 0  11 11 0  11.5 11 0  12 11 0  12.5 11 0  13 11 0  13.5 11 0  14 11 0  14.5 11 0  15 11 0  15.5 11 0  16 11 0  16.5 11 0  17 11 0  17.5 11 0  18 11 0  18.5 11 0  19 11 0  19.5 11 0  20 11 0  0 11.5 0  0.5 11.5 0  1 11.5 0  1.5 11.5 0  2 11.5 0  2.5 11.5 0  3 11.5 0  3.5 11.5 0  4 11.5 0  4.5 11.5 0  5 11.5 0  5.5 11.5 0  6 11.5 0  6.5 11.5 0  7 11.5 0  7.5 11.5 0  8 11.5 0  8.5 11.5 0  9 11.5 0  9.5 11.5 0  10 11.5 0  10.5 11.5 0  11 11.5 0  11.5 11.5 0  12 11.5 0  12.5 11.5 0  13 11.5 0  13.5 11.5 0  14 11.5 0  14.5 11.5 0  15 11.5 0  15.5 11.5 0  16 11.5 0  16.5 11.5 0  17 11.5 0  17.5 11.5 0  18 11.5 0  18.5 11.5 0  19 11.5 0  19.5 11.5 0  20 11.5 0  0 12 0  0.5 12 0  1 12 0  1.5 12 0  2 12 0  2.5 12 0  3 12 0  3.5 12 0  4 12 0  4.5 12 0  5 12 0  5.5 12 0  6 12 0  6.5 12 0  7 12 0  7.5 12 0  8 12 0  8.5 12 0  9 12 0  9.5 12 0  10 12 0  10.5 12 0  11 12 0  11.5 12 0  12 12 0  12.5 12 0  13 12 0  13.5 12 0  14 12 0  14.5 12 0  
[...]
<PointData  Vectors="f_4890-0"> 
<DataArray  type="Float64"  Name="f_4890-0"  NumberOfComponents="3" format="ascii">0.0000000000000000e+00 0.0000000000000000e+00 0.0000000000000000e+00  -1.1684167004375966e-07 0.0000000000000000e+00 0.0000000000000000e+00  -5.7838166561105944e-07 0.0000000000000000e+00 0.0000000000000000e+00  -1.8341013762981595e-06 0.0000000000000000e+00 0.0000000000000000e+00  -4.2774695062697320e-06 0.0000000000000000e+00 0.0000000000000000e+00  -8.2944390904679398e-06 0.0000000000000000e+00 0.0000000000000000e+00  -1.4264527902145343e-05 0.0000000000000000e+00 0.0000000000000000e+00  -2.2558691164340397e-05 0.0000000000000000e+00 0.0000000000000000e+00  -3.3537073960162092e-05 0.0000000000000000e+00 0.0000000000000000e+00  -4.7546700919814324e-05 0.0000000000000000e+00 0.0000000000000000e+00  -6.4919031562756118e-05 0.0000000000000000e+00 0.0000000000000000e+00  -8.5967337418021080e-05 0.0000000000000000e+00 0.0000000000000000e+00  -1.1098387033176532e-04 0.0000000000000000e+00 0.0000000000000000e+00  -1.4023679286881782e-04 0.0000000000000000e+00 0.0000000000000000e+00  -1.7396683539014449e-04 0.0000000000000000e+00 0.0000000000000000e+00  -2.1238362836394802e-04 0.0000000000000000e+00 0.0000000000000000e+00  -2.5566162723050632e-04 0.0000000000000000e+00 0.0000000000000000e+00  -3.0393549082518662e-04 0.0000000000000000e+00 0.0000000000000000e+00  -3.5729467652189452e-04 0.0000000000000000e+00 0.0000000000000000e+00  -4.1577684948346558e-04 0.0000000000000000e+00 0.0000000000000000e+00  -4.7935942621476325e-04 0.0000000000000000e+00 0.0000000000000000e+00  -5.4794811433196418e-04 0.0000000000000000e+00 0.0000000000000000e+00  -6.2136055884317698e-04 0.0000000000000000e+00 0.0000000000000000e+00  -6.9930198074343399e-04 0.0000000000000000e+00 0.0000000000000000e+00  -7.8132771038735783e-04 0.0000000000000000e+00 0.0000000000000000e+00  -8.6678432609754729e-04 0.0000000000000000e+00 0.0000000000000000e+00  -9.5471600480619102e-04 0.0000000000000000e+00 0.0000000000000000e+00  -1.0437145974496439e-03 0.0000000000000000e+00 0.0000000000000000e+00  -1.1316792328240261e-03 0.0000000000000000e+00 0.0000000000000000e+00  -1.2154315547878854e-03 0.0000000000000000e+00 0.0000000000000000e+00  -1.2901026856290184e-03 0.0000000000000000e+00 0.0000000000000000e+00  -1.3481633435587408e-03 0.0000000000000000e+00 0.0000000000000000e+00  -1.3779042392397820e-03 0.0000000000000000e+00 0.0000000000000000e+00  -1.3610857250562513e-03 0.0000000000000000e+00 0.0000000000000000e+00  -1.2693638602502822e-03 0.0000000000000000e+00 0.0000000000000000e+00  -1.0589766896378471e-03 0.0000000000000000e+00 0.0000000000000000e+00  -6.6307655287286106e-04 0.0000000000000000e+00 0.0000000000000000e+00  1.8900815063753383e-05 0.0000000000000000e+00 0.0000000000000000e+00  1.1352158647165596e-03 0.0000000000000000e+00 0.0000000000000000e+00  2.8990763110477136e-03 0.0000000000000000e+00 0.0000000000000000e+00  5.6098336196706124e-03 0.0000000000000000e+00 0.0000000000000000e+00  0.0000000000000000e+00 -1.1684166924226091e-07 0.0000000000000000e+00  1.3425747228651398e-07 1.3425747513348663e-07 0.0000000000000000e+00  -1.4456962768778125e-07 7.5419504680004024e-07 0.0000000000000000e+00  -1.2088878714556670e-06 1.7495605708883786e-06 0.0000000000000000e+00  -3.4560463121713466e-06 3.1288812304837754e-06 0.0000000000000000e+00  -7.2753723345594386e-06 4.8909904437457342e-06 0.0000000000000000e+00  -1.3047675144643455e-05 7.0294476091513430e-06 0.0000000000000000e+00  -2.1144478425292709e-05 9.5347308611079709e-06 0.0000000000000000e+00  -3.1926321795032751e-05 1.2394885653601674e-05 0.0000000000000000e+00  -4.5740635769800486e-05 1.5595605716489582e-05 0.0000000000000000e+00  -6.2919362507261729e-05 1.9120127812543708e-05 0.0000000000000000e+00  -8.3776358922510005e-05 2.2949065416828608e-05 0.0000000000000000e+00  -1.0860457659491771e-04 2.7060223149716955e-05 0.0000000000000000e+00  -1.3767299723854180e-04 3.1428408655725149e-05 0.0000000000000000e+00  -1.7122329071580445e-04 3.6025252077492989e-05 0.0000000000000000e+00  -2.0946614486366732e-04 4.0819041643724015e-05 0.0000000000000000e+00  -2.5257718442792121e-04 4.5774583949278688e-05 0.0000000000000000e+00  -3.0069234007623809e-04 5.0853097741345002e-05 0.0000000000000000e+00  -3.5390243062518966e-04 5.6012150066601898e-05 0.0000000000000000e+00  -4.1224655605828070e-04 6.1205643356653712e-05 0.0000000000000000e+00  -4.7570362194132110e-04 6.6383861055231718e-05 0.0000000000000000e+00  -5.4418085797021019e-04 7.1493577705434680e-05 0.0000000000000000e+00  -6.1749744211948767e-04 7.6478237286594082e-05 0.0000000000000000e+00  -6.9536011734050321e-04 8.1278200662283437e-05 0.0000000000000000e+00  -7.7732570432735701e-04 8.5831060582397333e-05 0.0000000000000000e+00  -8.6274222011294989e-04 9.0072021734582857e-05 0.0000000000000000e+00  -9.5065520495534177e-04 9.3934346907557055e-05 0.0000000000000000e+00  -1.0396577575054417e-03 9.7349883565653035e-05 0.0000000000000000e+00  -1.1276500532214216e-03 1.0024971657837754e-04 0.0000000000000000e+00  -1.2114543934460408e-03 1.0256505580102167e-04 0.0000000000000000e+00  -1.2862017728572160e-03 1.0422857923451408e-04 0.0000000000000000e+00  -1.3443612173768425e-03 1.0517663101393710e-04 0.0000000000000000e+00  -1.3742187503498226e-03 1.0535291733912562e-04 0.0000000000000000e+00  -1.3575246109924115e-03 1.0471459025408517e-04 0.0000000000000000e+00  -1.2659155473251471e-03 1.0324163490575552e-04 0.0000000000000000e+00  -1.0555959200113667e-03 1.0094969537809438e-04 0.0000000000000000e+00  -6.5966424429700756e-04 9.7903491765348130e-05 0.0000000000000000e+00  2.2520967755380868e-05 9.4219180785231241e-05 0.0000000000000000e+00  1.1393078222300284e-03 9.0017457438152707e-05 0.0000000000000000e+00  2.9038470358466045e-03 8.5196800196530553e-05 0.0000000000000000e+00  5.6131564399912043e-03 7.8553054502067469e-05 0.0000000000000000e+00  0.0000000000000000e+00 -5.7838165986924830e-07 0.0000000000000000e+00  7.5419504840516651e-07 -1.4456962241316648e-07 0.0000000000000000e+00  1.0742601462660824e-06 1.0742601437338134e-06 0.0000000000000000e+00  6.0238915497488059e-07 3.0689211507292681e-06 0.0000000000000000e+00  -1.0524825040987636e-06 5.8357436262422645e-06 0.0000000000000000e+00  -4.2787908052744184e-06 9.3665629724532636e-06 0.0000000000000000e+00  -9.4580325065019660e-06 1.3648156794708448e-05 0.0000000000000000e+00  -1.6962707503027309e-05 1.8662279627478391e-05 0.0000000000000000e+00  -2.7154435273583715e-05 2.4385798961192749e-05 0.0000000000000000e+00  -4.0381881931184256e-05 3.0790689183625182e-05 0.0000000000000000e+00  -5.6978453340692204e-05 3.7843866697977197e-05 0.0000000000000000e+00  -7.7259752961911435e-05 4.5506916808140068e-05 0.0000000000000000e+00  -1.0152079765174674e-04 5.3735761724861199e-05 0.0000000000000000e+00  -1.3003297382093668e-04 6.2480305765223252e-05 0.0000000000000000e+00  -1.6304070350837518e-04 7.1684084448319214e-05 0.0000000000000000e+00  -2.0075777063859257e-04 8.1283939672326604e-05 0.0000000000000000e+00  -2.4336322501791413e-04 9.1209741464655245e-05 0.0000000000000000e+00  -2.9099672480913021e-04 1.0138417640320536e-04 0.0000000000000000e+00  -3.4375308045654700e-04 1.1172262282645606e-04 0.0000000000000000e+00  -4.0167559780287799e-04 1.2213313256930375e-04 0.0000000000000000e+00  -4.6474754153790209e-04 1.3251653804522583e-04 0.0000000000000000e+00  -5.3288058282723841e-04 1.4276670146493156e-04 0.0000000000000000e+00  -6.0589834371059048e-04 1.5277092058662884e-04 0.0000000000000000e+00  -6.8351192588418078e-04 1.6241050244485234e-04 0.0000000000000000e+00  -7.6528232578000871e-04 1.7156151494427351e-04 0.0000000000000000e+00  -8.5056143857227854e-04 1.8009572810603959e-04 0.0000000000000000e+00  -9.3839823525602550e-04 1.8788176723715040e-04 0.0000000000000000e+00  -1.0273885738042222e-03 1.9478652640511466e-04 0.0000000000000000e+00  -1.1154343449180520e-03 2.0067694379158723e-04 0.0000000000000000e+00  -1.1993578698291038e-03 2.0542233493721379e-04 0.0000000000000000e+00  -1.2742873298233225e-03 2.0889762805661072e-04 0.0000000000000000e+00  -1.3326841811303527e-03 2.1098804468928014e-04 0.0000000000000000e+00  -1.3628190553921129e-03 2.1159596217485926e-04 0.0000000000000000e+00  -1.3464145019236363e-03 2.1065069382258602e-04 0.0000000000000000e+00  -1.2550616258250448e-03 2.0812124263236046e-04 0.0000000000000000e+00  -1.0448960201211079e-03 2.0402964076802278e-04 0.0000000000000000e+00  -6.4892468451015878e-04 1.9845603500534973e-04 0.0000000000000000e+00  3.3589133152145600e-05 1.9151182328777021e-04 0.0000000000000000e+00  1.1510199493759399e-03 1.8322598813979099e-04 0.0000000000000000e+00  2.9162431065987895e-03 1.7323368889308211e-04 0.0000000000000000e+00  5.6250353322568353e-03 1.6011550789194333e-04 0.0000000000000000e+00  0.0000000000000000e+00 -1.8341013712043932e-06 0.0000000000000000e+00  1.7495605709539826e-06 -1.2088878699229433e-06 0.0000000000000000e+00  3.0689211497286566e-06 6.0238915283270716e-07 0.0000000000000000e+00  3.5887567838973203e-06 3.5887567861261706e-06 0.0000000000000000e+00  2.9232179408334297e-06 7.7392294716334826e-06 0.0000000000000000e+00  6.8525009201374813e-07 1.3038475063752200e-05 0.0000000000000000e+00  -3.5066744441384842e-06 1.9465106712372890e-05 0.0000000000000000e+00  -1.0025867855238929e-05 2.6991334074850265e-05 0.0000000000000000e+00  -1.9235312795932542e-05 3.5582678676413875e-05 0.0000000000000000e+00  -3.1485520281303745e-05 4.5197615181546134e-05 0.0000000000000000e+00  -4.7112227532335094e-05 5.5787142977691399e-05 0.0000000000000000e+00  -6.6433885909857876e-05 6.7294299626234017e-05 0.0000000000000000e+00  -8.9748908810855519e-05 7.9653633983882297e-05 0.0000000000000000e+00  -1.1733265132337969e-04 9.2790662602267214e-05 0.0000000000000000e+00  -1.4943408618403340e-04 1.0662133593789074e-04 0.0000000000000000e+00  -1.8627212342879870e-04 1.2105154324089475e-04 0.0000000000000000e+00  -2.2803148931618416e-04 1.3597668614962998e-04 0.0000000000000000e+00  -2.7485802364605533e-04 1.5128135233713659e-04 0.0000000000000000e+00  -3.2685315723229077e-04 1.6683912171023670e-04 0.0000000000000000e+00  -3.8406716639140563e-04 1.8251253815275908e-04 0.0000000000000000e+00  -4.4649052529296572e-04 1.9815327951815251e-04 0.0000000000000000e+00  -5.1404221985681682e-04 2.1360255749337202e-04 0.0000000000000000e+00  -5.8655313561696782e-04 2.2869177716497460e-04 0.0000000000000000e+00  -6.6374140559412158e-04 2.4324348427906740e-04 0.0000000000000000e+00  -7.4517461461253624e-04 2.5707262810568542e-04 0.0000000000000000e+00  -8.3021054976863877e-04 2.6998817199097759e-04 0.0000000000000000e+00  -9.1790305351849007e-04 2.8179509730592091e-04 0.0000000000000000e+00  -1.0068513884998024e-03 2.9229687552391936e-04 0.0000000000000000e+00  -1.0949587251655201e-03 3.0129853644139356e-04 0.0000000000000000e+00  -1.1790455292228367e-03 3.0861054368127449e-04 0.0000000000000000e+00  -1.2542334322503108e-03 3.1405379751911207e-04 0.0000000000000000e+00  -1.3129703140844437e-03 3.1746618241037345e-04 0.0000000000000000e+00  -1.3435029512528875e-03 3.1871104954576718e-04 0.0000000000000000e+00  -1.3275158040764881e-03 3.1768760224651463e-04 0.0000000000000000e+00  -1.2365441926033504e-03 3.1434177693522041e-04 0.0000000000000000e+00  -1.0266506267024677e-03 3.0867289046513985e-04 0.0000000000000000e+00  -6.3076357958054871e-04 3.0072461235450851e-04 0.0000000000000000e+00  5.1899417798482956e-05 2.9053757069288179e-04 0.0000000000000000e+00  1.1696356487849297e-03 2.7802777887938544e-04 0.0000000000000000e+00  2.9349482308113359e-03 2.6275907655989183e-04 0.0000000000000000e+00  5.6427476249984038e-03 2.4367343867954979e-04 0.0000000000000000e+00  0.0000000000000000e+00 -4.2774695030782363e-06 0.0000000000000000e+00  3.1288812299745493e-06 -3.4560463099381997e-06 0.0000000000000000e+00  5.8357436254752457e-06 -1.0524825032887949e-06 0.0000000000000000e+00  7.7392294698756351e-06 2.9232179429332731e-06 0.0000000000000000e+00  8.4551333676730771e-06 8.4551333692630562e-06 0.0000000000000000e+00  7.5973868336181056e-06 1.5521638892497425e-05 0.0000000000000000e+00  4.7842875135234138e-06 2.4093750918240279e-05 0.0000000000000000e+00  -3.5846135064819802e-07 3.4134466066033574e-05 0.0000000000000000e+00  -8.1955227407537056e-06 4.5598240245663410e-05 0.0000000000000000e+00  -1.9079781023145797e-05 5.8430413207366226e-05 0.0000000000000000e+00  -3.3350069592090741e-05 7.2566554334841318e-05 0.0000000000000000e+00  -5.1328697155916533e-05 8.7931746490342246e-05 0.0000000000000000e+00  -7.3318731449762662e-05 1.0443983215552845e-04 0.0000000000000000e+00  -9.9601004675409200e-05 1.2199264903347274e-04 0.0000000000000000e+00  -1.3043079920306124e-04 1.4047928533792386e-04 0.0000000000000000e+00  -1.6603415612398298e-04 1.5977538918225367e-04 0.0000000000000000e+00  -2.0660371814046444e-04 1.7974257031263559e-04 0.0000000000000000e+00  -2.5229396232432120e-04 2.0022793605288994e-04 0.0000000000000000e+00  -3.0321558157623467e-04 2.2106380651071227e-04 0.0000000000000000e+00  -3.5942860905135564e-04 2.4206765632004272e-04 0.0000000000000000e+00  -4.2093360439349198e-04 2.6304233139279662e-04 0.0000000000000000e+00  -4.8765976370399874e-04 2.8377658962599849e-04 0.0000000000000000e+00  -5.5944806351271856e-04 3.0404601365869704e-04 0.0000000000000000e+00  -6.3602632102039542e-04 3.2361434305083536e-04 0.0000000000000000e+00  -7.1697105962169512e-04 3.4223527342457170e-04 0.0000000000000000e+00  -8.0164785404348128e-04 3.5965477378575373e-04 0.0000000000000000e+00  -8.8911668357050252e-04 3.7561398340433031e-04 0.0000000000000000e+00  -9.7798065437667702e-04 3.8985277031656709e-04 0.0000000000000000e+00  -1.0661436274341301e-03 4.0211406703089366e-04 0.0000000000000000e+00  -1.1504224274222503e-03 4.1214914142030011e-04 0.0000000000000000e+00  -1.2259291053799944e-03 4.1972399206304407e-04 0.0000000000000000e+00  -1.2850939274758064e-03 4.2462701886097573e-04 0.0000000000000000e+00  -1.3161355981061156e-03 4.2667788255323962e-04 0.0000000000000000e+00  -1.3006979744619857e-03 4.2573678085659457e-04 0.0000000000000000e+00  -1.2102633047523287e-03 4.2171182853010484e-04 0.0000000000000000e+00  -1.0008344608667724e-03 4.1455933155275812e-04 0.0000000000000000e+00  -6.0529185778519659e-04 4.0426729968574463e-04 0.0000000000000000e+00  7.7144574572460294e-05 3.9080796953840460e-04 0.0000000000000000e+00  1.1946552029648673e-03 3.7404663483144235e-04 0.0000000000000000e+00  2.9594451139356155e-03 3.5361863506704506e-04 0.0000000000000000e+00  5.6660006871463529e-03 3.2886666995334067e-04 0.0000000000000000e+00  0.0000000000000000e+00 -8.2944390867133748e-06 0.0000000000000000e+00  4.8909904450750770e-06 -7.2753723320845320e-06 0.0000000000000000e+00  9.3665629750859775e-06 -4.2787908040246433e-06 0.0000000000000000e+00  1.3038475064010731e-05 6.8525009198702286e-07 0.0000000000000000e+00  1.5521638895622922e-05 7.5973868320692610e-06 0.0000000000000000e+00  1.6430477027281395e-05 1.6430477023744751e-05 0.0000000000000000e+00  1.5382962391900370e-05 2.7148583314088534e-05 0.0000000000000000e+00  1.2003618347275533e-05 3.9706136265177468e-05 0.0000000000000000e+00  5.9257697095125110e-06 5.4047205405672193e-05 0.0000000000000000e+00  -3.2063461920948774e-06 7.0104718880619954e-05 0.0000000000000000e+00  -1.5735367505190994e-05 8.7799597616811131e-05 0.0000000000000000e+00  -3.1988397282188524e-05 1.0703981549516893e-04 0.0000000000000000e+00  -5.2274341098785218e-05 1.2771941176881248e-04 0.0000000000000000e+00  -7.6880950022948218e-05 1.4971748845432828e-04 0.0000000000000000e+00  -1.0607152182811918e-04 1.7289723014885842e-04 0.0000000000000000e+00  -1.4008119775255645e-04 1.9710498880722770e-04 0.0000000000000000e+00  -1.7911276103380500e-04 2.2216948145201975e-04 0.0000000000000000e+00  -2.2333178770367362e-04 2.4790115404619884e-04 0.0000000000000000e+00  -2.7286090367469989e-04 2.7409176989823475e-04 0.0000000000000000e+00  -3.2777273797431349e-04 3.0051428521484452e-04 0.0000000000000000e+00  -3.8808088704608726e-04 3.2692307748096426e-04 0.0000000000000000e+00  -4.5372774835549727e-04 3.5305459451324988e-04 0.0000000000000000e+00  -5.2456732988312080e-04 3.7862849223666174e-04 0.0000000000000000e+00  -6.0033991298310294e-04 4.0334932900874462e-04 0.0000000000000000e+00  -6.8063345010956533e-04 4.2690888322021673e-04 0.0000000000000000e+00  -7.6482335936140866e-04 4.4898916074577179e-04 0.0000000000000000e+00  -8.5197722379116872e-04 4.6926616063465041e-04 0.0000000000000000e+00  -9.4070272537244177e-04 4.8741447151665003e-04 0.0000000000000000e+00  -1.0289043095723497e-03 5.0311277511796472e-04 0.0000000000000000e+00  -1.1133942162195273e-03 5.1605032619857379e-04 0.0000000000000000e+00  -1.1892733438791981e-03 5.2593443307447096e-04 0.0000000000000000e+00  -1.2489527246789698e-03 5.3249882205879079e-04 0.0000000000000000e+00  -1.2806224815766964e-03 5.3551242796655795e-04 0.0000000000000000e+00  -1.2658883952176580e-03 5.3478745043256364e-04 0.0000000000000000e+00  -1.1761878137465935e-03 5.3018426718402572e-04 0.0000000000000000e+00  -9.6748013108856725e-04 5.2160894502795347e-04 0.0000000000000000e+00  -5.7262087514263905e-04 5.0899712928647277e-04 0.0000000000000000e+00  1.0914880117741600e-04 4.9227792511466082e-04 0.0000000000000000e+00  1.2259116621325349e-03 4.7131756329631526e-04 0.0000000000000000e+00  2.9896974329643856e-03 4.4586273100190993e-04 0.0000000000000000e+00  5.6948482681585654e-03 4.1554219694681446e-04 0.0000000000000000e+00  0.0000000000000000e+00 -1.4264527898801949e-05 0.0000000000000000e+00  7.0294476081890814e-06 -1.3047675142508627e-05 0.0000000000000000e+00  1.3648156794005262e-05 -9.4580325049389446e-06 0.0000000000000000e+00  1.9465106713204056e-05 -3.5066744429794298e-06 0.0000000000000000e+00  2.4093750918265294e-05 4.7842875105642119e-06 0.0000000000000000e+00  2.7148583309954166e-05 1.5382962395732767e-05 0.0000000000000000e+00  2.8247171071735932e-05 2.8247171076532432e-05 0.0000000000000000e+00  2.7012755860033429e-05 4.3323554421828222e-05 0.0000000000000000e+00  2.3076415045450537e-05 6.0546664129011760e-05 0.0000000000000000e+00  1.6079095326334848e-05 7.9837977360274365e-05 0.0000000000000000e+00  5.6737363614733699e-06 1.0110481167407226e-04 0.0000000000000000e+00  -8.4724057328224220e-06 1.2423915086528400e-04 0.0000000000000000e+00  -2.6675170794185115e-05 1.4911640926868578e-04 0.0000000000000000e+00  -4.9230591890361018e-05 1.7559417103656536e-04 0.0000000000000000e+00  -7.6411623549219973e-05 2.0351094814380753e-04 0.0000000000000000e+00  -1.0846443162514318e-04 2.3268500786362240e-04 0.0000000000000000e+00  -1.4560414443095672e-04 2.6291332771015007e-04 0.0000000000000000e+00  -1.8800990895981878e-04 2.9397074323968692e-04 0.0000000000000000e+00  -2.3581899952424939e-04 3.2560936115428316e-04 0.0000000000000000e+00  -2.8911956231229092e-04 3.5755831679415510e-04 0.0000000000000000e+00  -3.4794130483655817e-04 3.8952396019901548e-04 0.0000000000000000e+00  -4.1224298319741248e-04 4.2119055877517457e-04 0.0000000000000000e+00  -4.8189478872857558e-04 4.5222160625060825e-04 0.0000000000000000e+00  -5.5665250686560681e-04 4.8226182676287181e-04 0.0000000000000000e+00  -6.3611832448464052e-04 5.1093996009588482e-04 0.0000000000000000e+00  -7.1967994142302502e-04 5.3787240783543036e-04 0.0000000000000000e+00  -8.0641448621732008e-04 5.6266781118815580e-04 0.0000000000000000e+00  -8.9493555824597974e-04 5.8493261620720020e-04 0.0000000000000000e+00  -9.8314889053456112e-04 6.0427765607900337e-04 0.0000000000000000e+00  -1.0678622896925639e-03 6.2032573019381646e-04 0.0000000000000000e+00  -1.1441653981134115e-03 6.3272006148177098e-04 0.0000000000000000e+00  -1.2044502552319863e-03 6.4113332484136561e-04 0.0000000000000000e+00  -1.2368799541245484e-03 6.4527659862880545e-04 0.0000000000000000e+00  -1.2230262960603489e-03 6.4490703073338612e-04 0.0000000000000000e+00  -1.1342893777700402e-03 6.3983220775240708e-04 0.0000