<?xml version="1.0"?>
<VTKFile type="UnstructuredGrid"  version="0.1"  >
<UnstructuredGrid>
<Piece  NumberOfPoints="1681" NumberOfCells="3200">
<Points>
<DataArray  type="Float64"  NumberOfComponents="3"  format="ascii">0 0 0  0.5 0 0  1 0 0  1.5 0 0  2 0 0  2.5 0 0  3 0 0  3.5 0 0  4 0 0  4.5 0 0  5 0 0  5.5 0 0  6 0 0  6.5 0 0  7 0 0  7.5 0 0  8 0 0  8.5 0 0  9 0 0  9.5 0 0  10 0 0  10.5 0 0  11 0 0  11.5 0 0  12 0 0  12.5 0 0  13 0 0  13.5 0 0  14 0 0  14.5 0 0  15 0 0  15.5 0 0  16 0 0  16.5 0 0  17 0 0  17.5 0 0  18 0 0  18.5 0 0  19 0 0  19.5 0 0  20 0 0  0 0.5 0  0.5 0.5 0  1 0.5 0  1.5 0.5 0  2 0.5 0  2.5 0.5 0  3 0.5 0  3.5 0.5 0  4 0.5 0  4.5 0.5 0  5 0.5 0  5.5 0.5 0  6 0.5 0  6.5 0.5 0  7 0.5 0  7.5 0.5 0  8 0.5 0  8.5 0.5 0  9 0.5 0  9.5 0.5 0  10 0.5 0  10.5 0.5 0  11 0.5 0  11.5 0.5 0  12 0.5 0  12.5 0.5 0  13 0.5 0  13.5 0.5 0  14 0.5 0  14.5 0.5 0  15 0.5 0  15.5 0.5 0  16 0.5 0  16.5 0.5 0  17 0.5 0  17.5 0.5 0  18 0.5 0  18.5 0.5 0  19 0.5 0  19.5 0.5 0  20 0.5 0  0 1 0  0.5 1 0  1 1 0  1.5 1 0  2 1 0  2.5 1 0  3 1 0  3.5 1 0  4 1 0  4.5 1 0  5 1 0  5.5 1 0  6 1 0  6.5 1 0  7 1 0  7.5 1 0  8 1 0  8.5 1 0  9 1 0  9.5 1 0  10 1 0  10.5 1 0  11 1 0  11.5 1 0  12 1 0  12.5 1 0  13 1 0  13.5 1 0  14 1 0  14.5 1 0  15 1 0  15.5 1 0  16 1 0  16.5 1 0  17 1 0  17.5 1 0  18 1 0  18.5 1 0  19 1 0  19.5 1 0  20 1 0  0 1.5 0  0.5 1.5 0  1 1.5 0  1.5 1.5 0  2 1.5 0  2.5 1.5 0  3 1.5 0  3.5 1.5 0  4 1.5 0  4.5 1.5 0  5 1.5 0  5.5 1.5 0  6 1.5 0  6.5 1.5 0  7 1.5 0  7.5 1.5 0  8 1.5 0  8.5 1.5 0  9 1.5 0  9.5 1.5 0  10 1.5 0  10.5 1.5 0  11 1.5 0  11.5 1.5 0  12 1.5 0  12.5 1.5 0  13 1.5 0  13.5 1.5 0  14 1.5 0  14.5 1.5 0  15 1.5 0  15.5 1.5 0  16 1.5 0  16.5 1.5 0  17 1.5 0  17.5 1.5 0  18 1.5 0  18.5 1.5 0  19 1.5 0  19.5 1.5 0  20 1.5 0  0 2 0  0.5 2 0  1 2 0  1.5 2 0  2 2 0  2.5 2 0  3 2 0  3.5 2 0  4 2 0  4.5 2 0  5 2 0  5.5 2 0  6 2 0  6.5 2 0  7 2 0  7.5 2 0  8 2 0  8.5 2 0  9 2 0  9.5 2 0  10 2 0  10.5 2 0  11 2 0  11.5 2 0  12 2 0  12.5 2 0  13 2 0  13.5 2 0  14 2 0  14.5 2 0  15 2 0  15.5 2 0  16 2 0  16.5 2 0  17 2 0  17.5 2 0  18 2 0  18.5 2 0  19 2 0  19.5 2 0  20 2 0  0 2.5 0  0.5 2.5 0  1 2.5 0  1.5 2.5 0  2 2.5 0  2.5 2.5 0  3 2.5 0  3.5 2.5 0  4 2.5 0  4.5 2.5 0  5 2.5 0  5.5 2.5 0  6 2.5 0  6.5 2.5 0  7 2.5 0  7.5 2.5 0  8 2.5 0  8.5 2.5 0  9 2.5 0  9.5 2.5 0  10 2.5 0  10.5 2.5 0  11 2.5 0  11.5 2.5 0  12 2.5 0  12.5 2.5 0  13 2.5 0  13.5 2.5 0  14 2.5 0  14.5 2.5 0  15 2.5 0  15.5 2.5 0  16 2.5 0  16.5 2.5 0  17 2.5 0  17.5 2.5 0  18 2.5 0  18.5 2.5 0  19 2.5 0  19.5 2.5 0  20 2.5 0  0 3 0  0.5 3 0  1 3 0  1.5 3 0  2 3 0  2.5 3 0  3 3 0  3.5 3 0  4 3 0  4.5 3 0  5 3 0  5.5 3 0  6 3 0  6.5 3 0  7 3 0  7.5 3 0  8 3 0  8.5 3 0  9 3 0  9.5 3 0  10 3 0  10.5 3 0  11 3 0  11.5 3 0  12 3 0  12.5 3 0  13 3 0  13.5 3 0  14 3 0  14.5 3 0  15 3 0  15.5 3 0  16 3 0  16.5 3 0  17 3 0  17.5 3 0  18 3 0  18.5 3 0  19 3 0  19.5 3 0  20 3 0  0 3.5 0  0.5 3.5 0  1 3.5 0  1.5 3.5 0  2 3.5 0  2.5 3.5 0  3 3.5 0  3.5 3.5 0  4 3.5 0  4.5 3.5 0  5 3.5 0  5.5 3.5 0  6 3.5 0  6.5 3.5 0  7 3.5 0  7.5 3.5 0  8 3.5 0  8.5 3.5 0  9 3.5 0  9.5 3.5 0  10 3.5 0  10.5 3.5 0  11 3.5 0  11.5 3.5 0  12 3.5 0  12.5 3.5 0  13 3.5 0  13.5 3.5 0  14 3.5 0  14.5 3.5 0  15 3.5 0  15.5 3.5 0  16 3.5 0  16.5 3.5 0  17 3.5 0  17.5 3.5 0  18 3.5 0  18.5 3.5 0  19 3.5 0  19.5 3.5 0  20 3.5 0  0 4 0  0.5 4 0  1 4 0  1.5 4 0  2 4 0  2.5 4 0  3 4 0  3.5 4 0  4 4 0  4.5 4 0  5 4 0  5.5 4 0  6 4 0  6.5 4 0  7 4 0  7.5 4 0  8 4 0  8.5 4 0  9 4 0  9.5 4 0  10 4 0  10.5 4 0  11 4 0  11.5 4 0  12 4 0  12.5 4 0  13 4 0  13.5 4 0  14 4 0  14.5 4 0  15 4 0  15.5 4 0  16 4 0  16.5 4 0  17 4 0  17.5 4 0  18 4 0  18.5 4 0  19 4 0  19.5 4 0  20 4 0  0 4.5 0  0.5 4.5 0  1 4.5 0  1.5 4.5 0  2 4.5 0  2.5 4.5 0  3 4.5 0  3.5 4.5 0  4 4.5 0  4.5 4.5 0  5 4.5 0  5.5 4.5 0  6 4.5 0  6.5 4.5 0  7 4.5 0  7.5 4.5 0  8 4.5 0  8.5 4.5 0  9 4.5 0  9.5 4.5 0  10 4.5 0  10.5 4.5 0  11 4.5 0  11.5 4.5 0  12 4.5 0  12.5 4.5 0  13 4.5 0  13.5 4.5 0  14 4.5 0  14.5 4.5 0  15 4.5 0  15.5 4.5 0  16 4.5 0  16.5 4.5 0  17 4.5 0  17.5 4.5 0  18 4.5 0  18.5 4.5 0  19 4.5 0  19.5 4.5 0  20 4.5 0  0 5 0  0.5 5 0  1 5 0  1.5 5 0  2 5 0  2.5 5 0  3 5 0  3.5 5 0  4 5 0  4.5 5 0  5 5 0  5.5 5 0  6 5 0  6.5 5 0  7 5 0  7.5 5 0  8 5 0  8.5 5 0  9 5 0  9.5 5 0  10 5 0  10.5 5 0  11 5 0  11.5 5 0  12 5 0  12.5 5 0  13 5 0  13.5 5 0  14 5 0  14.5 5 0  15 5 0  15.5 5 0  16 5 0  16.5 5 0  17 5 0  17.5 5 0  18 5 0  18.5 5 0  19 5 0  19.5 5 0  20 5 0  0 5.5 0  0.5 5.5 0  1 5.5 0  1.5 5.5 0  2 5.5 0  2.5 5.5 0  3 5.5 0  3.5 5.5 0  4 5.5 0  4.5 5.5 0  5 5.5 0  5.5 5.5 0  6 5.5 0  6.5 5.5 0  7 5.5 0  7.5 5.5 0  8 5.5 0  8.5 5.5 0  9 5.5 0  9.5 5.5 0  10 5.5 0  10.5 5.5 0  11 5.5 0  11.5 5.5 0  12 5.5 0  12.5 5.5 0  13 5.5 0  13.5 5.5 0  14 5.5 0  14.5 5.5 0  15 5.5 0  15.5 5.5 0  16 5.5 0  16.5 5.5 0  17 5.5 0  17.5 5.5 0  18 5.5 0  18.5 5.5 0  19 5.5 0  19.5 5.5 0  20 5.5 0  0 6 0  0.5 6 0  1 6 0  1.5 6 0  2 6 0  2.5 6 0  3 6 0  3.5 6 0  4 6 0  4.5 6 0  5 6 0  5.5 6 0  6 6 0  6.5 6 0  7 6 0  7.5 6 0  8 6 0  8.5 6 0  9 6 0  9.5 6 0  10 6 0  10.5 6 0  11 6 0  11.5 6 0  12 6 0  12.5 6 0  13 6 0  13.5 6 0  14 6 0  14.5 6 0  15 6 0  15.5 6 0  16 6 0  16.5 6 0  17 6 0  17.5 6 0  18 6 0  18.5 6 0  19 6 0  19.5 6 0  20 6 0  0 6.5 0  0.5 6.5 0  1 6.5 0  1.5 6.5 0  2 6.5 0  2.5 6.5 0  3 6.5 0  3.5 6.5 0  4 6.5 0  4.5 6.5 0  5 6.5 0  5.5 6.5 0  6 6.5 0  6.5 6.5 0  7 6.5 0  7.5 6.5 0  8 6.5 0  8.5 6.5 0  9 6.5 0  9.5 6.5 0  10 6.5 0  10.5 6.5 0  11 6.5 0  11.5 6.5 0  12 6.5 0  12.5 6.5 0  13 6.5 0  13.5 6.5 0  14 6.5 0  14.5 6.5 0  15 6.5 0  15.5 6.5 0  16 6.5 0  16.5 6.5 0  17 6.5 0  17.5 6.5 0  18 6.5 0  18.5 6.5 0  19 6.5 0  19.5 6.5 0  20 6.5 0  0 7 0  0.5 7 0  1 7 0  1.5 7 0  2 7 0  2.5 7 0  3 7 0  3.5 7 0  4 7 0  4.5 7 0  5 7 0  5.5 7 0  6 7 0  6.5 7 0  7 7 0  7.5 7 0  8 7 0  8.5 7 0  9 7 0  9.5 7 0  10 7 0  10.5 7 0  11 7 0  11.5 7 0  12 7 0  12.5 7 0  13 7 0  13.5 7 0  14 7 0  14.5 7 0  15 7 0  15.5 7 0  16 7 0  16.5 7 0  17 7 0  17.5 7 0  18 7 0  18.5 7 0  19 7 0  19.5 7 0  20 7 0  0 7.5 0  0.5 7.5 0  1 7.5 0  1.5 7.5 0  2 7.5 0  2.5 7.5 0  3 7.5 0  3.5 7.5 0  4 7.5 0  4.5 7.5 0  5 7.5 0  5.5 7.5 0  6 7.5 0  6.5 7.5 0  7 7.5 0  7.5 7.5 0  8 7.5 0  8.5 7.5 0  9 7.5 0  9.5 7.5 0  10 7.5 0  10.5 7.5 0  11 7.5 0  11.5 7.5 0  12 7.5 0  12.5 7.5 0  13 7.5 0  13.5 7.5 0  14 7.5 0  14.5 7.5 0  15 7.5 0  15.5 7.5 0  16 7.5 0  16.5 7.5 0  17 7.5 0  17.5 7.5 0  18 7.5 0  18.5 7.5 0  19 7.5 0  19.5 7.5 0  20 7.5 0  0 8 0  0.5 8 0  1 8 0  1.5 8 0  2 8 0  2.5 8 0  3 8 0  3.5 8 0  4 8 0  4.5 8 0  5 8 0  5.5 8 0  6 8 0  6.5 8 0  7 8 0  7.5 8 0  8 8 0  8.5 8 0  9 8 0  9.5 8 0  10 8 0  10.5 8 0  11 8 0  11.5 8 0  12 8 0  12.5 8 0  13 8 0  13.5 8 0  14 8 0  14.5 8 0  15 8 0  15.5 8 0  16 8 0  16.5 8 0  17 8 0  17.5 8 0  18 8 0  18.5 8 0  19 8 0  19.5 8 0  20 8 0  0 8.5 0  0.5 8.5 0  1 8.5 0  1.5 8.5 0  2 8.5 0  2.5 8.5 0  3 8.5 0  3.5 8.5 0  4 8.5 0  4.5 8.5 0  5 8.5 0  5.5 8.5 0  6 8.5 0  6.5 8.5 0  7 8.5 0  7.5 8.5 0  8 8.5 0  8.5 8.5 0  9 8.5 0  9.5 8.5 0  10 8.5 0  10.5 8.5 0  11 8.5 0  11.5 8.5 0  12 8.5 0  12.5 8.5 0  13 8.5 0  13.5 8.5 0  14 8.5 0  14.5 8.5 0  15 8.5 0  15.5 8.5 0  16 8.5 0  16.5 8.5 0  17 8.5 0  17.5 8.5 0  18 8.5 0  18.5 8.5 0  19 8.5 0  19.5 8.5 0  20 8.5 0  0 9 0  0.5 9 0  1 9 0  1.5 9 0  2 9 0  2.5 9 0  3 9 0  3.5 9 0  4 9 0  4.5 9 0  5 9 0  5.5 9 0  6 9 0  6.5 9 0  7 9 0  7.5 9 0  8 9 0  8.5 9 0  9 9 0  9.5 9 0  10 9 0  10.5 9 0  11 9 0  11.5 9 0  12 9 0  12.5 9 0  13 9 0  13.5 9 0  14 9 0  14.5 9 0  15 9 0  15.5 9 0  16 9 0  16.5 9 0  17 9 0  17.5 9 0  18 9 0  18.5 9 0  19 9 0  19.5 9 0  20 9 0  0 9.5 0  0.5 9.5 0  1 9.5 0  1.5 9.5 0  2 9.5 0  2.5 9.5 0  3 9.5 0  3.5 9.5 0  4 9.5 0  4.5 9.5 0  5 9.5 0  5.5 9.5 0  6 9.5 0  6.5 9.5 0  7 9.5 0  7.5 9.5 0  8 9.5 0  8.5 9.5 0  9 9.5 0  9.5 9.5 0  10 9.5 0  10.5 9.5 0  11 9.5 0  11.5 9.5 0  12 9.5 0  12.5 9.5 0  13 9.5 0  13.5 9.5 0  14 9.5 0  14.5 9.5 0  15 9.5 0  15.5 9.5 0  16 9.5 0  16.5 9.5 0  17 9.5 0  17.5 9.5 0  18 9.5 0  18.5 9.5 0  19 9.5 0  19.5 9.5 0  20 9.5 0  0 10 0  0.5 10 0  1 10 0  1.5 10 0  2 10 0  2.5 10 0  3 10 0  3.5 10 0  4 10 0  4.5 10 0  5 10 0  5.5 10 0  6 10 0  6.5 10 0  7 10 0  7.5 10 0  8 10 0  8.5 10 0  9 10 0  9.5 10 0  10 10 0  10.5 10 0  11 10 0  11.5 10 0  12 10 0  12.5 10 0  13 10 0  13.5 10 0  14 10 0  14.5 10 0  15 10 0  15.5 10 0  16 10 0  16.5 10 0  17 10 0  17.5 10 0  18 10 0  18.5 10 0  19 10 0  19.5 10 0  20 10 0  0 10.5 0  0.5 10.5 0  1 10.5 0  1.5 10.5 0  2 10.5 0  2.5 10.5 0  3 10.5 0  3.5 10.5 0  4 10.5 0  4.5 10.5 0  5 10.5 0  5.5 10.5 0  6 10.5 0  6.5 10.5 0  7 10.5 0  7.5 10.5 0  8 10.5 0  8.5 10.5 0  9 10.5 0  9.5 10.5 0  10 10.5 0  10.5 10.5 0  11 10.5 0  11.5 10.5 0  12 10.5 0  12.5 10.5 0  13 10.5 0  13.5 10.5 0  14 10.5 0  14.5 10.5 0  15 10.5 0  15.5 10.5 0  16 10.5 0  16.5 10.5 0  17 10.5 0  17.5 10.5 0  18 10.5 0  18.5 10.5 0  19 10.5 0  19.5 10.5 0  20 10.5 0  0 11 0  0.5 11 0  1 11 0  1.5 11 0  2 11 0  2.5 11 0  3 11 0  3.5 11 0  4 11 0  4.5 11 0  5 11 0  5.5 11 0  6 11 0  6.5 11 0  7 11 0  7.5 11 0  8 11 0  8.5 11 0  9 11 0  9.5 11 0  10 11 0  10.5 11 0  11 11 0  11.5 11 0  12 11 0  12.5 11 0  13 11 0  13.5 11 0  14 11 0  14.5 11 0  15 11 0  15.5 11 0  16 11 0  16.5 11 0  17 11 0  17.5 11 0  18 11 0  18.5 11 0  19 11 0  19.5 11 0  20 11 0  0 11.5 0  0.5 11.5 0  1 11.5 0  1.5 11.5 0  2 11.5 0  2.5 11.5 0  3 11.5 0  3.5 11.5 0  4 11.5 0  4.5 11.5 0  5 11.5 0  5.5 11.5 0  6 11.5 0  6.5 11.5 0  7 11.5 0  7.5 11.5 0  8 11.5 0  8.5 11.5 0  9 11.5 0  9.5 11.5 0  10 11.5 0  10.5 11.5 0  11 11.5 0  11.5 11.5 0  12 11.5 0  12.5 11.5 0  13 11.5 0  13.5 11.5 0  14 11.5 0  14.5 11.5 0  15 11.5 0  15.5 11.5 0  16 11.5 0  16.5 11.5 0  17 11.5 0  17.5 11.5 0  18 11.5 0  18.5 11.5 0  19 11.5 0  19.5 11.5 0  20 11.5 0  0 12 0  0.5 12 0  1 12 0  1.5 12 0  2 12 0  2.5 12 0  3 12 0  3.5 12 0  4 12 0  4.5 12 0  5 12 0  5.5 12 0  6 12 0  6.5 12 0  7 12 0  7.5 12 0  8 12 0  8.5 12 0  9 12 0  9.5 12 0  10 12 0  10.5 12 0  11 12 0  11.5 12 0  12 12 0  12.5 12 0  13 12 0  13.5 12 0  14 12 0  14.5 12 0  
[...]
<PointData  Vectors="f_2975-0"> 
<DataArray  type="Float64"  Name="f_2975-0"  NumberOfComponents="3" format="ascii">0.0000000000000000e+00 0.0000000000000000e+00 0.0000000000000000e+00  -7.3135551838261770e-07 0.0000000000000000e+00 0.0000000000000000e+00  -6.2999903658849406e-06 0.0000000000000000e+00 0.0000000000000000e+00  -2.3934100617366328e-05 0.0000000000000000e+00 0.0000000000000000e+00  -5.9635248614402130e-05 0.0000000000000000e+00 0.0000000000000000e+00  -1.1919078619549526e-04 0.0000000000000000e+00 0.0000000000000000e+00  -2.0819564299762066e-04 0.0000000000000000e+00 0.0000000000000000e+00  -3.3199098732713265e-04 0.0000000000000000e+00 0.0000000000000000e+00  -4.9558889623144587e-04 0.0000000000000000e+00 0.0000000000000000e+00  -7.0358394931535726e-04 0.0000000000000000e+00 0.0000000000000000e+00  -9.6004785918857468e-04 0.0000000000000000e+00 0.0000000000000000e+00  -1.2684027763486486e-03 0.0000000000000000e+00 0.0000000000000000e+00  -1.6312683596220344e-03 0.0000000000000000e+00 0.0000000000000000e+00  -2.0502769611965058e-03 0.0000000000000000e+00 0.0000000000000000e+00  -2.5258504153985229e-03 0.0000000000000000e+00 0.0000000000000000e+00  -3.0569309822259861e-03 0.0000000000000000e+00 0.0000000000000000e+00  -3.6406580019535755e-03 0.0000000000000000e+00 0.0000000000000000e+00  -4.2719807874370044e-03 0.0000000000000000e+00 0.0000000000000000e+00  -4.9431972355159287e-03 0.0000000000000000e+00 0.0000000000000000e+00  -5.6434065932617116e-03 0.0000000000000000e+00 0.0000000000000000e+00  -6.3578637729215931e-03 0.0000000000000000e+00 0.0000000000000000e+00  -7.0672215532518170e-03 0.0000000000000000e+00 0.0000000000000000e+00  -7.7466458828909365e-03 0.0000000000000000e+00 0.0000000000000000e+00  -8.3647882112297279e-03 0.0000000000000000e+00 0.0000000000000000e+00  -8.8825971411434813e-03 0.0000000000000000e+00 0.0000000000000000e+00  -9.2519494590696458e-03 0.0000000000000000e+00 0.0000000000000000e+00  -9.4140773623980888e-03 0.0000000000000000e+00 0.0000000000000000e+00  -9.2977639246406545e-03 0.0000000000000000e+00 0.0000000000000000e+00  -8.8172717615618620e-03 0.0000000000000000e+00 0.0000000000000000e+00  -7.8699594590046478e-03 0.0000000000000000e+00 0.0000000000000000e+00  -6.3335251818938103e-03 0.0000000000000000e+00 0.0000000000000000e+00  -4.0627950266599704e-03 0.0000000000000000e+00 0.0000000000000000e+00  -8.8594224606271471e-04 0.0000000000000000e+00 0.0000000000000000e+00  3.4000218379555453e-03 0.0000000000000000e+00 0.0000000000000000e+00  9.0347104303701437e-03 0.0000000000000000e+00 0.0000000000000000e+00  1.6301100866204350e-02 0.0000000000000000e+00 0.0000000000000000e+00  2.5534027494045552e-02 0.0000000000000000e+00 0.0000000000000000e+00  3.7131164574421276e-02 0.0000000000000000e+00 0.0000000000000000e+00  5.1567789038133909e-02 0.0000000000000000e+00 0.0000000000000000e+00  6.9418383989424501e-02 0.0000000000000000e+00 0.0000000000000000e+00  9.1395090330537929e-02 0.0000000000000000e+00 0.0000000000000000e+00  0.0000000000000000e+00 -7.3135552118788844e-07 0.0000000000000000e+00  3.4780547236072235e-06 3.4780547239032861e-06 0.0000000000000000e+00  6.7765130155007595e-07 1.3412432040966613e-05 0.0000000000000000e+00  -1.4016172064042279e-05 2.9145322502924763e-05 0.0000000000000000e+00  -4.6666141164507265e-05 5.0864812580797706e-05 0.0000000000000000e+00  -1.0312896478470042e-04 7.8586277279402424e-05 0.0000000000000000e+00  -1.8902870272584355e-04 1.1222744842211759e-04 0.0000000000000000e+00  -3.0971977851767477e-04 1.5165167592350257e-04 0.0000000000000000e+00  -4.7022249943261496e-04 1.9668258554054359e-04 0.0000000000000000e+00  -6.7513858066406526e-04 2.4710748666918156e-04 0.0000000000000000e+00  -9.2854727898324639e-04 3.0267687538482082e-04 0.0000000000000000e+00  -1.2338793505449689e-03 3.6310256632829342e-04 0.0000000000000000e+00  -1.5937644427995003e-03 4.2805531802455981e-04 0.0000000000000000e+00  -2.0098464461810470e-03 4.9716228744034528e-04 0.0000000000000000e+00  -2.4825603585885191e-03 5.7000448849116227e-04 0.0000000000000000e+00  -3.0108632362318317e-03 6.4611438288862265e-04 0.0000000000000000e+00  -3.5919107936104176e-03 7.2497372244341928e-04 0.0000000000000000e+00  -4.2206701781785910e-03 8.0601176580073416e-04 0.0000000000000000e+00  -4.8894583963696673e-03 8.8860399967512227e-04 0.0000000000000000e+00  -5.5873948204014333e-03 9.7207150268189592e-04 0.0000000000000000e+00  -6.2997551623812575e-03 1.0556810960231987e-03 0.0000000000000000e+00  -7.0072132459175745e-03 1.1386464286125308e-03 0.0000000000000000e+00  -7.6849557836527948e-03 1.2201301433549276e-03 0.0000000000000000e+00  -8.3016540794371794e-03 1.2992472648838257e-03 0.0000000000000000e+00  -8.8182749432319518e-03 1.3750699352994987e-03 0.0000000000000000e+00  -9.1867108685606894e-03 1.4466336020040411e-03 0.0000000000000000e+00  -9.3482062861794096e-03 1.5129447282749931e-03 0.0000000000000000e+00  -9.2315519251640887e-03 1.5729900502797914e-03 0.0000000000000000e+00  -8.7510122281797866e-03 1.6257473418587512e-03 0.0000000000000000e+00  -7.8039403503383552e-03 1.6701975688513347e-03 0.0000000000000000e+00  -6.2680201062765874e-03 1.7053382177702981e-03 0.0000000000000000e+00  -3.9980523452472832e-03 1.7301974711247049e-03 0.0000000000000000e+00  -8.2217180026005724e-04 1.7438487727321034e-03 0.0000000000000000e+00  3.4626647174478150e-03 1.7454251657845002e-03 0.0000000000000000e+00  9.0961432607097725e-03 1.7341325415258263e-03 0.0000000000000000e+00  1.6361331054918722e-02 1.7092605435119980e-03 0.0000000000000000e+00  2.5593151207647585e-02 1.6701897199102615e-03 0.0000000000000000e+00  3.7189273887130697e-02 1.6163969641858943e-03 0.0000000000000000e+00  5.1624430347426843e-02 1.5474842678994305e-03 0.0000000000000000e+00  6.9469505309023849e-02 1.4633511606098764e-03 0.0000000000000000e+00  9.1415489230510558e-02 1.3648175986274871e-03 0.0000000000000000e+00  0.0000000000000000e+00 -6.2999903718991532e-06 0.0000000000000000e+00  1.3412432041881752e-05 6.7765130598685464e-07 0.0000000000000000e+00  2.0041720593149373e-05 2.0041720594013065e-05 0.0000000000000000e+00  1.4631997460371146e-05 5.1552385736766818e-05 0.0000000000000000e+00  -8.7385740181573288e-06 9.5156043747143069e-05 0.0000000000000000e+00  -5.5901229563350729e-05 1.5074544025996304e-04 0.0000000000000000e+00  -1.3248954370454272e-04 2.1813697874133563e-04 0.0000000000000000e+00  -2.4387391998590967e-04 2.9706775507526228e-04 0.0000000000000000e+00  -3.9509182654936604e-04 3.8719818789148097e-04 0.0000000000000000e+00  -5.9076355978839208e-04 4.8811351593064525e-04 0.0000000000000000e+00  -8.3498943150579156e-04 5.9932283362459341e-04 0.0000000000000000e+00  -1.1312246302140466e-03 7.2025619981842327e-04 0.0000000000000000e+00  -1.4821272487525960e-03 8.5026056846001662e-04 0.0000000000000000e+00  -1.8893740401129604e-03 9.8859512034809747e-04 0.0000000000000000e+00  -2.3534374950594569e-03 1.1344264131151406e-03 0.0000000000000000e+00  -2.8733168366135752e-03 1.2868236737746685e-03 0.0000000000000000e+00  -3.4462144995668310e-03 1.4447545175104279e-03 0.0000000000000000e+00  -4.0671486158938711e-03 1.6070813664505698e-03 0.0000000000000000e+00  -4.7284909726370405e-03 1.7725588465349719e-03 0.0000000000000000e+00  -5.4194188593516875e-03 1.9398324509368133e-03 0.0000000000000000e+00  -6.1252681794316394e-03 2.1074387684171312e-03 0.0000000000000000e+00  -6.8267741453368249e-03 2.2738075808719032e-03 0.0000000000000000e+00  -7.4991847595464404e-03 2.4372661330194860e-03 0.0000000000000000e+00  -8.1112309986344552e-03 2.5960458649790475e-03 0.0000000000000000e+00  -8.6239359937006869e-03 2.7482918731462709e-03 0.0000000000000000e+00  -8.9892432703455264e-03 2.8920753221391717e-03 0.0000000000000000e+00  -9.1484408841766198e-03 3.0254089682964511e-03 0.0000000000000000e+00  -9.0303535155030271e-03 3.1462658687292488e-03 0.0000000000000000e+00  -8.5492675135225276e-03 3.2526012372703643e-03 0.0000000000000000e+00  -7.6025434762045305e-03 3.3423772670596562e-03 0.0000000000000000e+00  -6.0678558099906245e-03 3.4135905678690632e-03 0.0000000000000000e+00  -3.7999768801118368e-03 3.4643016644879628e-03 0.0000000000000000e+00  -6.2699206588173631e-04 3.4926657664946068e-03 0.0000000000000000e+00  3.6542127756295784e-03 3.4969637396707440e-03 0.0000000000000000e+00  9.2834143523409293e-03 3.4756318679516163e-03 0.0000000000000000e+00  1.6543781842468918e-02 3.4272885866105203e-03 0.0000000000000000e+00  2.5770327365778709e-02 3.3507557387299986e-03 0.0000000000000000e+00  3.7360735603736803e-02 3.2450688005556520e-03 0.0000000000000000e+00  5.1789537224850510e-02 3.1094479716729756e-03 0.0000000000000000e+00  6.9627018192932127e-02 2.9430671743758746e-03 0.0000000000000000e+00  9.1564853120085971e-02 2.7437667213108400e-03 0.0000000000000000e+00  0.0000000000000000e+00 -2.3934100620568516e-05 0.0000000000000000e+00  2.9145322506717495e-05 -1.4016172061111906e-05 0.0000000000000000e+00  5.1552385741637671e-05 1.4631997457032920e-05 0.0000000000000000e+00  6.1748233980470868e-05 6.1748233972115478e-05 0.0000000000000000e+00  5.3927642307428829e-05 1.2714256993963798e-04 0.0000000000000000e+00  2.2295554438195715e-05 2.1058457709751386e-04 0.0000000000000000e+00  -3.8774908902981597e-05 3.1175889941959239e-04 0.0000000000000000e+00  -1.3466257331608110e-04 4.3025511493190258e-04 0.0000000000000000e+00  -2.7042276853345810e-04 5.6556233511099877e-04 0.0000000000000000e+00  -4.5070090313847899e-04 7.1706405834833355e-04 0.0000000000000000e+00  -6.7962913934989703e-04 8.8403257890568639e-04 0.0000000000000000e+00  -9.6070142835663684e-04 1.0656227286985830e-03 0.0000000000000000e+00  -1.2966219127785936e-03 1.2608649889079453e-03 0.0000000000000000e+00  -1.6891210318183054e-03 1.4686581858814852e-03 0.0000000000000000e+00  -2.1387328151162908e-03 1.6877620781173685e-03 0.0000000000000000e+00  -2.6445259040638195e-03 1.9167901844674435e-03 0.0000000000000000e+00  -3.2037798322346977e-03 2.1542032277953359e-03 0.0000000000000000e+00  -3.8115970567706610e-03 2.3983035891924345e-03 0.0000000000000000e+00  -4.4604401806907319e-03 2.6472311890485497e-03 0.0000000000000000e+00  -5.1395827587875269e-03 2.8989612327154578e-03 0.0000000000000000e+00  -5.8344610400987056e-03 3.1513042762951380e-03 0.0000000000000000e+00  -6.5259129505676047e-03 3.4019090792387786e-03 0.0000000000000000e+00  -7.1892895086075716e-03 3.6482687100508437e-03 0.0000000000000000e+00  -7.7934225913916053e-03 3.8877303557481729e-03 0.0000000000000000e+00  -8.2994313582245953e-03 4.1175092494565987e-03 0.0000000000000000e+00  -8.6593474219518862e-03 4.3347070693917659e-03 0.0000000000000000e+00  -8.8145356502345867e-03 4.5363350708421679e-03 0.0000000000000000e+00  -8.6938827261582481e-03 4.7193420853110877e-03 0.0000000000000000e+00  -8.2117185472241304e-03 4.8806473524912915e-03 0.0000000000000000e+00  -7.2654251646568314e-03 5.0171779350189835e-03 0.0000000000000000e+00  -5.7326728585603490e-03 5.1259101964623204e-03 0.0000000000000000e+00  -3.4682011696475219e-03 5.2039144888266931e-03 0.0000000000000000e+00  -3.0003152363656307e-04 5.2484017742903460e-03 0.0000000000000000e+00  3.9750465023628626e-03 5.2567703368386117e-03 0.0000000000000000e+00  9.5969372112079000e-03 5.2266498496409816e-03 0.0000000000000000e+00  1.6848963734358603e-02 5.1559382923662108e-03 0.0000000000000000e+00  2.6066306517104648e-02 5.0428226543476670e-03 0.0000000000000000e+00  3.7646807825841136e-02 4.8857607645077647e-03 0.0000000000000000e+00  5.2065092499743240e-02 4.6833614107015253e-03 0.0000000000000000e+00  6.9891370879225548e-02 4.4339994503720071e-03 0.0000000000000000e+00  9.1816839398637801e-02 4.1348483683800253e-03 0.0000000000000000e+00  0.0000000000000000e+00 -5.9635248620623398e-05 0.0000000000000000e+00  5.0864812576870062e-05 -4.6666141166917582e-05 0.0000000000000000e+00  9.5156043750275994e-05 -8.7385740186696939e-06 0.0000000000000000e+00  1.2714256994381318e-04 5.3927642302059976e-05 0.0000000000000000e+00  1.4105824488967522e-04 1.4105824488687109e-04 0.0000000000000000e+00  1.3113521377199942e-04 2.5231828127637938e-04 0.0000000000000000e+00  9.1751372403004535e-05 3.8727097315862394e-04 0.0000000000000000e+00  1.7518276097478699e-05 5.4536235646109228e-04 0.0000000000000000e+00  -9.6640105741867949e-05 7.2591199649904006e-04 0.0000000000000000e+00  -2.5540010063075820e-04 9.2810443833518143e-04 0.0000000000000000e+00  -4.6293496498594599e-04 1.1509801376105625e-03 0.0000000000000000e+00  -7.2279019006485216e-04 1.3934257425716938e-03 0.0000000000000000e+00  -1.0377322741957366e-03 1.6541638714805821e-03 0.0000000000000000e+00  -1.4095651622079305e-03 1.9317426233129247e-03 0.0000000000000000e+00  -1.8389077392178806e-03 2.2245251283792115e-03 0.0000000000000000e+00  -2.3249248405138355e-03 2.5306795108961887e-03 0.0000000000000000e+00  -2.8650032467500367e-03 2.8481696953928156e-03 0.0000000000000000e+00  -3.4543631027043283e-03 3.1747475428910658e-03 0.0000000000000000e+00  -4.0855941527222382e-03 3.5079468508004146e-03 0.0000000000000000e+00  -4.7481051442756009e-03 3.8450797924484753e-03 0.0000000000000000e+00  -5.4274737177761809e-03 4.1832364049354358e-03 0.0000000000000000e+00  -6.1046830596413722e-03 4.5192877559819093e-03 0.0000000000000000e+00  -6.7552304959591671e-03 4.8498934252613297e-03 0.0000000000000000e+00  -7.3480919434021196e-03 5.1715139199053012e-03 0.0000000000000000e+00  -7.8445245408622858e-03 5.4804285998834423e-03 0.0000000000000000e+00  -8.1966875921666970e-03 5.7727596110202358e-03 0.0000000000000000e+00  -8.3460587674901460e-03 6.0445022037027172e-03 0.0000000000000000e+00  -8.2216177895401352e-03 6.2915616458875936e-03 0.0000000000000000e+00  -7.7377628150324474e-03 6.5097967109166450e-03 0.0000000000000000e+00  -6.7919143846724766e-03 6.6950694228665461e-03 0.0000000000000000e+00  -5.2617467556703313e-03 6.8433003607287039e-03 0.0000000000000000e+00  -3.0019647192008423e-03 6.9505283327516440e-03 0.0000000000000000e+00  1.5948708109146315e-04 7.0129725866282747e-03 0.0000000000000000e+00  4.4259397215232373e-03 7.0270948032591192e-03 0.0000000000000000e+00  1.0037461481533911e-02 6.9896566421503341e-03 0.0000000000000000e+00  1.7277578110606415e-02 6.8977658372158688e-03 0.0000000000000000e+00  2.6481698622599446e-02 6.7488981313220259e-03 0.0000000000000000e+00  3.8047889654257247e-02 6.5408707854250165e-03 0.0000000000000000e+00  5.2450927698387606e-02 6.2717248548880408e-03 0.0000000000000000e+00  7.0260969478475044e-02 5.9394672499557414e-03 0.0000000000000000e+00  9.2168786315327045e-02 5.5417359157525960e-03 0.0000000000000000e+00  0.0000000000000000e+00 -1.1919078619734143e-04 0.0000000000000000e+00  7.8586277281887808e-05 -1.0312896478799184e-04 0.0000000000000000e+00  1.5074544026517141e-04 -5.5901229570076150e-05 0.0000000000000000e+00  2.1058457710592676e-04 2.2295554432313227e-05 0.0000000000000000e+00  2.5231828128318578e-04 1.3113521377209779e-04 0.0000000000000000e+00  2.7019343783394332e-04 2.7019343782931627e-04 0.0000000000000000e+00  2.5858948962173892e-04 4.3892296174347279e-04 0.0000000000000000e+00  2.1210567624770367e-04 6.3663603690756435e-04 0.0000000000000000e+00  1.2564109182655375e-04 8.6249204397635042e-04 0.0000000000000000e+00  -5.5178299208767850e-06 1.1154859764603339e-03 0.0000000000000000e+00  -1.8559440463971808e-04 1.3944363904710665e-03 0.0000000000000000e+00  -4.1819767044881017e-04 1.6979725698398329e-03 0.0000000000000000e+00  -7.0617181266014351e-04 2.0245210522437051e-03 0.0000000000000000e+00  -1.0514131241257656e-03 2.3722918165436867e-03 0.0000000000000000e+00  -1.4546478084586241e-03 2.7392645159099753e-03 0.0000000000000000e+00  -1.9151630190732375e-03 3.1231752096165903e-03 0.0000000000000000e+00  -2.4304825374966538e-03 3.5215041144591296e-03 0.0000000000000000e+00  -2.9959774657770818e-03 3.9314649636620763e-03 0.0000000000000000e+00  -3.6044012654246355e-03 4.3499966270048648e-03 0.0000000000000000e+00  -4.2453374381745349e-03 4.7737577052744872e-03 0.0000000000000000e+00  -4.9045471176035957e-03 5.1991248617755982e-03 0.0000000000000000e+00  -5.5632028097985196e-03 5.6221956893354056e-03 0.0000000000000000e+00  -6.1969934354948256e-03 6.0387969257630339e-03 0.0000000000000000e+00  -6.7750845842100638e-03 6.4444988189729215e-03 0.0000000000000000e+00  -7.2589163216934044e-03 6.8346363961011656e-03 0.0000000000000000e+00  -7.6008187286165539e-03 7.2043383004257210e-03 0.0000000000000000e+00  -7.7424222016147992e-03 7.5485637164737791e-03 0.0000000000000000e+00  -7.6128348688186704e-03 7.8621476959664094e-03 0.0000000000000000e+00  -7.1265525055852581e-03 8.1398549125110443e-03 0.0000000000000000e+00  -6.1810560552978686e-03 8.3764414967838329e-03 0.0000000000000000e+00  -4.6540368668459052e-03 8.5667241150828560e-03 0.0000000000000000e+00  -2.4001681317996548e-03 8.7056548215637929e-03 0.0000000000000000e+00  7.5268995866297264e-04 8.7883993829695681e-03 0.0000000000000000e+00  5.0080080036091611e-03 8.8104156337804607e-03 0.0000000000000000e+00  1.0606047966904390e-02 8.7675267519776220e-03 0.0000000000000000e+00  1.7830577255163634e-02 8.6559817774812635e-03 0.0000000000000000e+00  2.7017278984209494e-02 8.4724918583279404e-03 0.0000000000000000e+00  3.8564494832536926e-02 8.2142263974450749e-03 0.0000000000000000e+00  5.2947225336560648e-02 7.8787546526539187e-03 0.0000000000000000e+00  7.0735755816191861e-02 7.4639470469403616e-03 0.0000000000000000e+00  9.2621010263230830e-02 6.9679544585347598e-03 0.0000000000000000e+00  0.0000000000000000e+00 -2.0819564300038172e-04 0.0000000000000000e+00  1.1222744842345249e-04 -1.8902870273195387e-04 0.0000000000000000e+00  2.1813697874294071e-04 -1.3248954370911271e-04 0.0000000000000000e+00  3.1175889941833314e-04 -3.8774908906365744e-05 0.0000000000000000e+00  3.8727097315462036e-04 9.1751372399704765e-05 0.0000000000000000e+00  4.3892296174128547e-04 2.5858948961903335e-04 0.0000000000000000e+00  4.6109287458770464e-04 4.6109287459042235e-04 0.0000000000000000e+00  4.4836576279057403e-04 6.9845125751906293e-04 0.0000000000000000e+00  3.9561262879412923e-04 9.6967591077830643e-04 0.0000000000000000e+00  2.9807726599299998e-04 1.2735852984097702e-03 0.0000000000000000e+00  1.5147826935547497e-04 1.6087900416075567e-03 0.0000000000000000e+00  -4.7867949107987665e-05 1.9736769327178111e-03 0.0000000000000000e+00  -3.0289753756511498e-04 2.3663921335953051e-03 0.0000000000000000e+00  -6.1561693721889725e-04 2.7848238870876760e-03 0.0000000000000000e+00  -9.8688118763894713e-04 3.2265851850343413e-03 0.0000000000000000e+00  -1.4161251193125113e-03 3.6889969253383905e-03 0.0000000000000000e+00  -1.9010387623694166e-03 4.1690721744490795e-03 0.0000000000000000e+00  -2.4371772719942800e-03 4.6635022337375744e-03 0.0000000000000000e+00  -3.0174946296818266e-03 5.1686452898477824e-03 0.0000000000000000e+00  -3.6317893451974044e-03 5.6805185056069069e-03 0.0000000000000000e+00  -4.2660493643615210e-03 6.1947944749575099e-03 0.0000000000000000e+00  -4.9016823677322328e-03 6.7068030172779220e-03 0.0000000000000000e+00  -5.5146165754663455e-03 7.2115393144986809e-03 0.0000000000000000e+00  -6.0742559541222757e-03 7.7036793921144518e-03 0.0000000000000000e+00  -6.5422721809909618e-03 8.1776039010415819e-03 0.0000000000000000e+00  -6.8712135951232017e-03 8.6274310615676673e-03 0.0000000000000000e+00  -7.0029082632451431e-03 9.0470594706480913e-03 0.0000000000000000e+00  -6.8666336643007963e-03 9.4302212362896171e-03 0.0000000000000000e+00  -6.3770185946592940e-03 9.7705455716709088e-03 0.0000000000000000e+00  -5.4316326898183184e-03 1.0061632540036445e-02 0.0000000000000000e+00  -3.9082040516447867e-03 1.0297136066305085e-02 0.0000000000000000e+00  -1.6613839452211546e-03 1.0470854594801314e-02 0.0000000000000000e+00  1.4810532953270896e-03 1.0576826836702248e-02 0.0000000000000000e+00  5.7227309867030089e-03 1.0609428865337016e-02 0.0000000000000000e+00  1.1304130093875684e-02 1.0563467334849768e-02 0.0000000000000000e+00  1.850929751185