<?xml version="1.0"?>
<VTKFile type="UnstructuredGrid"  version="0.1"  >
<UnstructuredGrid>
<Piece  NumberOfPoints="1681" NumberOfCells="3200">
<Points>
<DataArray  type="Float64"  NumberOfComponents="3"  format="ascii">0 0 0  0.5 0 0  1 0 0  1.5 0 0  2 0 0  2.5 0 0  3 0 0  3.5 0 0  4 0 0  4.5 0 0  5 0 0  5.5 0 0  6 0 0  6.5 0 0  7 0 0  7.5 0 0  8 0 0  8.5 0 0  9 0 0  9.5 0 0  10 0 0  10.5 0 0  11 0 0  11.5 0 0  12 0 0  12.5 0 0  13 0 0  13.5 0 0  14 0 0  14.5 0 0  15 0 0  15.5 0 0  16 0 0  16.5 0 0  17 0 0  17.5 0 0  18 0 0  18.5 0 0  19 0 0  19.5 0 0  20 0 0  0 0.5 0  0.5 0.5 0  1 0.5 0  1.5 0.5 0  2 0.5 0  2.5 0.5 0  3 0.5 0  3.5 0.5 0  4 0.5 0  4.5 0.5 0  5 0.5 0  5.5 0.5 0  6 0.5 0  6.5 0.5 0  7 0.5 0  7.5 0.5 0  8 0.5 0  8.5 0.5 0  9 0.5 0  9.5 0.5 0  10 0.5 0  10.5 0.5 0  11 0.5 0  11.5 0.5 0  12 0.5 0  12.5 0.5 0  13 0.5 0  13.5 0.5 0  14 0.5 0  14.5 0.5 0  15 0.5 0  15.5 0.5 0  16 0.5 0  16.5 0.5 0  17 0.5 0  17.5 0.5 0  18 0.5 0  18.5 0.5 0  19 0.5 0  19.5 0.5 0  20 0.5 0  0 1 0  0.5 1 0  1 1 0  1.5 1 0  2 1 0  2.5 1 0  3 1 0  3.5 1 0  4 1 0  4.5 1 0  5 1 0  5.5 1 0  6 1 0  6.5 1 0  7 1 0  7.5 1 0  8 1 0  8.5 1 0  9 1 0  9.5 1 0  10 1 0  10.5 1 0  11 1 0  11.5 1 0  12 1 0  12.5 1 0  13 1 0  13.5 1 0  14 1 0  14.5 1 0  15 1 0  15.5 1 0  16 1 0  16.5 1 0  17 1 0  17.5 1 0  18 1 0  18.5 1 0  19 1 0  19.5 1 0  20 1 0  0 1.5 0  0.5 1.5 0  1 1.5 0  1.5 1.5 0  2 1.5 0  2.5 1.5 0  3 1.5 0  3.5 1.5 0  4 1.5 0  4.5 1.5 0  5 1.5 0  5.5 1.5 0  6 1.5 0  6.5 1.5 0  7 1.5 0  7.5 1.5 0  8 1.5 0  8.5 1.5 0  9 1.5 0  9.5 1.5 0  10 1.5 0  10.5 1.5 0  11 1.5 0  11.5 1.5 0  12 1.5 0  12.5 1.5 0  13 1.5 0  13.5 1.5 0  14 1.5 0  14.5 1.5 0  15 1.5 0  15.5 1.5 0  16 1.5 0  16.5 1.5 0  17 1.5 0  17.5 1.5 0  18 1.5 0  18.5 1.5 0  19 1.5 0  19.5 1.5 0  20 1.5 0  0 2 0  0.5 2 0  1 2 0  1.5 2 0  2 2 0  2.5 2 0  3 2 0  3.5 2 0  4 2 0  4.5 2 0  5 2 0  5.5 2 0  6 2 0  6.5 2 0  7 2 0  7.5 2 0  8 2 0  8.5 2 0  9 2 0  9.5 2 0  10 2 0  10.5 2 0  11 2 0  11.5 2 0  12 2 0  12.5 2 0  13 2 0  13.5 2 0  14 2 0  14.5 2 0  15 2 0  15.5 2 0  16 2 0  16.5 2 0  17 2 0  17.5 2 0  18 2 0  18.5 2 0  19 2 0  19.5 2 0  20 2 0  0 2.5 0  0.5 2.5 0  1 2.5 0  1.5 2.5 0  2 2.5 0  2.5 2.5 0  3 2.5 0  3.5 2.5 0  4 2.5 0  4.5 2.5 0  5 2.5 0  5.5 2.5 0  6 2.5 0  6.5 2.5 0  7 2.5 0  7.5 2.5 0  8 2.5 0  8.5 2.5 0  9 2.5 0  9.5 2.5 0  10 2.5 0  10.5 2.5 0  11 2.5 0  11.5 2.5 0  12 2.5 0  12.5 2.5 0  13 2.5 0  13.5 2.5 0  14 2.5 0  14.5 2.5 0  15 2.5 0  15.5 2.5 0  16 2.5 0  16.5 2.5 0  17 2.5 0  17.5 2.5 0  18 2.5 0  18.5 2.5 0  19 2.5 0  19.5 2.5 0  20 2.5 0  0 3 0  0.5 3 0  1 3 0  1.5 3 0  2 3 0  2.5 3 0  3 3 0  3.5 3 0  4 3 0  4.5 3 0  5 3 0  5.5 3 0  6 3 0  6.5 3 0  7 3 0  7.5 3 0  8 3 0  8.5 3 0  9 3 0  9.5 3 0  10 3 0  10.5 3 0  11 3 0  11.5 3 0  12 3 0  12.5 3 0  13 3 0  13.5 3 0  14 3 0  14.5 3 0  15 3 0  15.5 3 0  16 3 0  16.5 3 0  17 3 0  17.5 3 0  18 3 0  18.5 3 0  19 3 0  19.5 3 0  20 3 0  0 3.5 0  0.5 3.5 0  1 3.5 0  1.5 3.5 0  2 3.5 0  2.5 3.5 0  3 3.5 0  3.5 3.5 0  4 3.5 0  4.5 3.5 0  5 3.5 0  5.5 3.5 0  6 3.5 0  6.5 3.5 0  7 3.5 0  7.5 3.5 0  8 3.5 0  8.5 3.5 0  9 3.5 0  9.5 3.5 0  10 3.5 0  10.5 3.5 0  11 3.5 0  11.5 3.5 0  12 3.5 0  12.5 3.5 0  13 3.5 0  13.5 3.5 0  14 3.5 0  14.5 3.5 0  15 3.5 0  15.5 3.5 0  16 3.5 0  16.5 3.5 0  17 3.5 0  17.5 3.5 0  18 3.5 0  18.5 3.5 0  19 3.5 0  19.5 3.5 0  20 3.5 0  0 4 0  0.5 4 0  1 4 0  1.5 4 0  2 4 0  2.5 4 0  3 4 0  3.5 4 0  4 4 0  4.5 4 0  5 4 0  5.5 4 0  6 4 0  6.5 4 0  7 4 0  7.5 4 0  8 4 0  8.5 4 0  9 4 0  9.5 4 0  10 4 0  10.5 4 0  11 4 0  11.5 4 0  12 4 0  12.5 4 0  13 4 0  13.5 4 0  14 4 0  14.5 4 0  15 4 0  15.5 4 0  16 4 0  16.5 4 0  17 4 0  17.5 4 0  18 4 0  18.5 4 0  19 4 0  19.5 4 0  20 4 0  0 4.5 0  0.5 4.5 0  1 4.5 0  1.5 4.5 0  2 4.5 0  2.5 4.5 0  3 4.5 0  3.5 4.5 0  4 4.5 0  4.5 4.5 0  5 4.5 0  5.5 4.5 0  6 4.5 0  6.5 4.5 0  7 4.5 0  7.5 4.5 0  8 4.5 0  8.5 4.5 0  9 4.5 0  9.5 4.5 0  10 4.5 0  10.5 4.5 0  11 4.5 0  11.5 4.5 0  12 4.5 0  12.5 4.5 0  13 4.5 0  13.5 4.5 0  14 4.5 0  14.5 4.5 0  15 4.5 0  15.5 4.5 0  16 4.5 0  16.5 4.5 0  17 4.5 0  17.5 4.5 0  18 4.5 0  18.5 4.5 0  19 4.5 0  19.5 4.5 0  20 4.5 0  0 5 0  0.5 5 0  1 5 0  1.5 5 0  2 5 0  2.5 5 0  3 5 0  3.5 5 0  4 5 0  4.5 5 0  5 5 0  5.5 5 0  6 5 0  6.5 5 0  7 5 0  7.5 5 0  8 5 0  8.5 5 0  9 5 0  9.5 5 0  10 5 0  10.5 5 0  11 5 0  11.5 5 0  12 5 0  12.5 5 0  13 5 0  13.5 5 0  14 5 0  14.5 5 0  15 5 0  15.5 5 0  16 5 0  16.5 5 0  17 5 0  17.5 5 0  18 5 0  18.5 5 0  19 5 0  19.5 5 0  20 5 0  0 5.5 0  0.5 5.5 0  1 5.5 0  1.5 5.5 0  2 5.5 0  2.5 5.5 0  3 5.5 0  3.5 5.5 0  4 5.5 0  4.5 5.5 0  5 5.5 0  5.5 5.5 0  6 5.5 0  6.5 5.5 0  7 5.5 0  7.5 5.5 0  8 5.5 0  8.5 5.5 0  9 5.5 0  9.5 5.5 0  10 5.5 0  10.5 5.5 0  11 5.5 0  11.5 5.5 0  12 5.5 0  12.5 5.5 0  13 5.5 0  13.5 5.5 0  14 5.5 0  14.5 5.5 0  15 5.5 0  15.5 5.5 0  16 5.5 0  16.5 5.5 0  17 5.5 0  17.5 5.5 0  18 5.5 0  18.5 5.5 0  19 5.5 0  19.5 5.5 0  20 5.5 0  0 6 0  0.5 6 0  1 6 0  1.5 6 0  2 6 0  2.5 6 0  3 6 0  3.5 6 0  4 6 0  4.5 6 0  5 6 0  5.5 6 0  6 6 0  6.5 6 0  7 6 0  7.5 6 0  8 6 0  8.5 6 0  9 6 0  9.5 6 0  10 6 0  10.5 6 0  11 6 0  11.5 6 0  12 6 0  12.5 6 0  13 6 0  13.5 6 0  14 6 0  14.5 6 0  15 6 0  15.5 6 0  16 6 0  16.5 6 0  17 6 0  17.5 6 0  18 6 0  18.5 6 0  19 6 0  19.5 6 0  20 6 0  0 6.5 0  0.5 6.5 0  1 6.5 0  1.5 6.5 0  2 6.5 0  2.5 6.5 0  3 6.5 0  3.5 6.5 0  4 6.5 0  4.5 6.5 0  5 6.5 0  5.5 6.5 0  6 6.5 0  6.5 6.5 0  7 6.5 0  7.5 6.5 0  8 6.5 0  8.5 6.5 0  9 6.5 0  9.5 6.5 0  10 6.5 0  10.5 6.5 0  11 6.5 0  11.5 6.5 0  12 6.5 0  12.5 6.5 0  13 6.5 0  13.5 6.5 0  14 6.5 0  14.5 6.5 0  15 6.5 0  15.5 6.5 0  16 6.5 0  16.5 6.5 0  17 6.5 0  17.5 6.5 0  18 6.5 0  18.5 6.5 0  19 6.5 0  19.5 6.5 0  20 6.5 0  0 7 0  0.5 7 0  1 7 0  1.5 7 0  2 7 0  2.5 7 0  3 7 0  3.5 7 0  4 7 0  4.5 7 0  5 7 0  5.5 7 0  6 7 0  6.5 7 0  7 7 0  7.5 7 0  8 7 0  8.5 7 0  9 7 0  9.5 7 0  10 7 0  10.5 7 0  11 7 0  11.5 7 0  12 7 0  12.5 7 0  13 7 0  13.5 7 0  14 7 0  14.5 7 0  15 7 0  15.5 7 0  16 7 0  16.5 7 0  17 7 0  17.5 7 0  18 7 0  18.5 7 0  19 7 0  19.5 7 0  20 7 0  0 7.5 0  0.5 7.5 0  1 7.5 0  1.5 7.5 0  2 7.5 0  2.5 7.5 0  3 7.5 0  3.5 7.5 0  4 7.5 0  4.5 7.5 0  5 7.5 0  5.5 7.5 0  6 7.5 0  6.5 7.5 0  7 7.5 0  7.5 7.5 0  8 7.5 0  8.5 7.5 0  9 7.5 0  9.5 7.5 0  10 7.5 0  10.5 7.5 0  11 7.5 0  11.5 7.5 0  12 7.5 0  12.5 7.5 0  13 7.5 0  13.5 7.5 0  14 7.5 0  14.5 7.5 0  15 7.5 0  15.5 7.5 0  16 7.5 0  16.5 7.5 0  17 7.5 0  17.5 7.5 0  18 7.5 0  18.5 7.5 0  19 7.5 0  19.5 7.5 0  20 7.5 0  0 8 0  0.5 8 0  1 8 0  1.5 8 0  2 8 0  2.5 8 0  3 8 0  3.5 8 0  4 8 0  4.5 8 0  5 8 0  5.5 8 0  6 8 0  6.5 8 0  7 8 0  7.5 8 0  8 8 0  8.5 8 0  9 8 0  9.5 8 0  10 8 0  10.5 8 0  11 8 0  11.5 8 0  12 8 0  12.5 8 0  13 8 0  13.5 8 0  14 8 0  14.5 8 0  15 8 0  15.5 8 0  16 8 0  16.5 8 0  17 8 0  17.5 8 0  18 8 0  18.5 8 0  19 8 0  19.5 8 0  20 8 0  0 8.5 0  0.5 8.5 0  1 8.5 0  1.5 8.5 0  2 8.5 0  2.5 8.5 0  3 8.5 0  3.5 8.5 0  4 8.5 0  4.5 8.5 0  5 8.5 0  5.5 8.5 0  6 8.5 0  6.5 8.5 0  7 8.5 0  7.5 8.5 0  8 8.5 0  8.5 8.5 0  9 8.5 0  9.5 8.5 0  10 8.5 0  10.5 8.5 0  11 8.5 0  11.5 8.5 0  12 8.5 0  12.5 8.5 0  13 8.5 0  13.5 8.5 0  14 8.5 0  14.5 8.5 0  15 8.5 0  15.5 8.5 0  16 8.5 0  16.5 8.5 0  17 8.5 0  17.5 8.5 0  18 8.5 0  18.5 8.5 0  19 8.5 0  19.5 8.5 0  20 8.5 0  0 9 0  0.5 9 0  1 9 0  1.5 9 0  2 9 0  2.5 9 0  3 9 0  3.5 9 0  4 9 0  4.5 9 0  5 9 0  5.5 9 0  6 9 0  6.5 9 0  7 9 0  7.5 9 0  8 9 0  8.5 9 0  9 9 0  9.5 9 0  10 9 0  10.5 9 0  11 9 0  11.5 9 0  12 9 0  12.5 9 0  13 9 0  13.5 9 0  14 9 0  14.5 9 0  15 9 0  15.5 9 0  16 9 0  16.5 9 0  17 9 0  17.5 9 0  18 9 0  18.5 9 0  19 9 0  19.5 9 0  20 9 0  0 9.5 0  0.5 9.5 0  1 9.5 0  1.5 9.5 0  2 9.5 0  2.5 9.5 0  3 9.5 0  3.5 9.5 0  4 9.5 0  4.5 9.5 0  5 9.5 0  5.5 9.5 0  6 9.5 0  6.5 9.5 0  7 9.5 0  7.5 9.5 0  8 9.5 0  8.5 9.5 0  9 9.5 0  9.5 9.5 0  10 9.5 0  10.5 9.5 0  11 9.5 0  11.5 9.5 0  12 9.5 0  12.5 9.5 0  13 9.5 0  13.5 9.5 0  14 9.5 0  14.5 9.5 0  15 9.5 0  15.5 9.5 0  16 9.5 0  16.5 9.5 0  17 9.5 0  17.5 9.5 0  18 9.5 0  18.5 9.5 0  19 9.5 0  19.5 9.5 0  20 9.5 0  0 10 0  0.5 10 0  1 10 0  1.5 10 0  2 10 0  2.5 10 0  3 10 0  3.5 10 0  4 10 0  4.5 10 0  5 10 0  5.5 10 0  6 10 0  6.5 10 0  7 10 0  7.5 10 0  8 10 0  8.5 10 0  9 10 0  9.5 10 0  10 10 0  10.5 10 0  11 10 0  11.5 10 0  12 10 0  12.5 10 0  13 10 0  13.5 10 0  14 10 0  14.5 10 0  15 10 0  15.5 10 0  16 10 0  16.5 10 0  17 10 0  17.5 10 0  18 10 0  18.5 10 0  19 10 0  19.5 10 0  20 10 0  0 10.5 0  0.5 10.5 0  1 10.5 0  1.5 10.5 0  2 10.5 0  2.5 10.5 0  3 10.5 0  3.5 10.5 0  4 10.5 0  4.5 10.5 0  5 10.5 0  5.5 10.5 0  6 10.5 0  6.5 10.5 0  7 10.5 0  7.5 10.5 0  8 10.5 0  8.5 10.5 0  9 10.5 0  9.5 10.5 0  10 10.5 0  10.5 10.5 0  11 10.5 0  11.5 10.5 0  12 10.5 0  12.5 10.5 0  13 10.5 0  13.5 10.5 0  14 10.5 0  14.5 10.5 0  15 10.5 0  15.5 10.5 0  16 10.5 0  16.5 10.5 0  17 10.5 0  17.5 10.5 0  18 10.5 0  18.5 10.5 0  19 10.5 0  19.5 10.5 0  20 10.5 0  0 11 0  0.5 11 0  1 11 0  1.5 11 0  2 11 0  2.5 11 0  3 11 0  3.5 11 0  4 11 0  4.5 11 0  5 11 0  5.5 11 0  6 11 0  6.5 11 0  7 11 0  7.5 11 0  8 11 0  8.5 11 0  9 11 0  9.5 11 0  10 11 0  10.5 11 0  11 11 0  11.5 11 0  12 11 0  12.5 11 0  13 11 0  13.5 11 0  14 11 0  14.5 11 0  15 11 0  15.5 11 0  16 11 0  16.5 11 0  17 11 0  17.5 11 0  18 11 0  18.5 11 0  19 11 0  19.5 11 0  20 11 0  0 11.5 0  0.5 11.5 0  1 11.5 0  1.5 11.5 0  2 11.5 0  2.5 11.5 0  3 11.5 0  3.5 11.5 0  4 11.5 0  4.5 11.5 0  5 11.5 0  5.5 11.5 0  6 11.5 0  6.5 11.5 0  7 11.5 0  7.5 11.5 0  8 11.5 0  8.5 11.5 0  9 11.5 0  9.5 11.5 0  10 11.5 0  10.5 11.5 0  11 11.5 0  11.5 11.5 0  12 11.5 0  12.5 11.5 0  13 11.5 0  13.5 11.5 0  14 11.5 0  14.5 11.5 0  15 11.5 0  15.5 11.5 0  16 11.5 0  16.5 11.5 0  17 11.5 0  17.5 11.5 0  18 11.5 0  18.5 11.5 0  19 11.5 0  19.5 11.5 0  20 11.5 0  0 12 0  0.5 12 0  1 12 0  1.5 12 0  2 12 0  2.5 12 0  3 12 0  3.5 12 0  4 12 0  4.5 12 0  5 12 0  5.5 12 0  6 12 0  6.5 12 0  7 12 0  7.5 12 0  8 12 0  8.5 12 0  9 12 0  9.5 12 0  10 12 0  10.5 12 0  11 12 0  11.5 12 0  12 12 0  12.5 12 0  13 12 0  13.5 12 0  14 12 0  14.5 12 0  
[...]
<PointData  Vectors="f_826-0"> 
<DataArray  type="Float64"  Name="f_826-0"  NumberOfComponents="3" format="ascii">0.0000000000000000e+00 0.0000000000000000e+00 0.0000000000000000e+00  1.9467927403055095e-04 0.0000000000000000e+00 0.0000000000000000e+00  3.8027273677966681e-04 0.0000000000000000e+00 0.0000000000000000e+00  5.3759709432629353e-04 0.0000000000000000e+00 0.0000000000000000e+00  6.5285657859695805e-04 0.0000000000000000e+00 0.0000000000000000e+00  7.1358854001322687e-04 0.0000000000000000e+00 0.0000000000000000e+00  7.0868861322841647e-04 0.0000000000000000e+00 0.0000000000000000e+00  6.2877110174136791e-04 0.0000000000000000e+00 0.0000000000000000e+00  4.6657129902548047e-04 0.0000000000000000e+00 0.0000000000000000e+00  2.1737636473429875e-04 0.0000000000000000e+00 0.0000000000000000e+00  -1.2050955635327007e-04 0.0000000000000000e+00 0.0000000000000000e+00  -5.4526008611622385e-04 0.0000000000000000e+00 0.0000000000000000e+00  -1.0509754985730004e-03 0.0000000000000000e+00 0.0000000000000000e+00  -1.6270797222484399e-03 0.0000000000000000e+00 0.0000000000000000e+00  -2.2576589007526856e-03 0.0000000000000000e+00 0.0000000000000000e+00  -2.9207341751304483e-03 0.0000000000000000e+00 0.0000000000000000e+00  -3.5874602823403462e-03 0.0000000000000000e+00 0.0000000000000000e+00  -4.2212401109084762e-03 0.0000000000000000e+00 0.0000000000000000e+00  -4.7767433954770122e-03 0.0000000000000000e+00 0.0000000000000000e+00  -5.1988151068458272e-03 0.0000000000000000e+00 0.0000000000000000e+00  -5.4212555944355353e-03 0.0000000000000000e+00 0.0000000000000000e+00  -5.3654498841805807e-03 0.0000000000000000e+00 0.0000000000000000e+00  -4.9388173483348287e-03 0.0000000000000000e+00 0.0000000000000000e+00  -4.0330447260110511e-03 0.0000000000000000e+00 0.0000000000000000e+00  -2.5220544577749561e-03 0.0000000000000000e+00 0.0000000000000000e+00  -2.5964547792064801e-04 0.0000000000000000e+00 0.0000000000000000e+00  2.9232764982881627e-03 0.0000000000000000e+00 0.0000000000000000e+00  7.2219897154674534e-03 0.0000000000000000e+00 0.0000000000000000e+00  1.2861916918914473e-02 0.0000000000000000e+00 0.0000000000000000e+00  2.0103458315155767e-02 0.0000000000000000e+00 0.0000000000000000e+00  2.9247976646714888e-02 0.0000000000000000e+00 0.0000000000000000e+00  4.0645326507643999e-02 0.0000000000000000e+00 0.0000000000000000e+00  5.4703487658439305e-02 0.0000000000000000e+00 0.0000000000000000e+00  7.1901118454183011e-02 0.0000000000000000e+00 0.0000000000000000e+00  9.2804249494489052e-02 0.0000000000000000e+00 0.0000000000000000e+00  1.1808899840112054e-01 0.0000000000000000e+00 0.0000000000000000e+00  1.4857332365218653e-01 0.0000000000000000e+00 0.0000000000000000e+00  1.8526295769625731e-01 0.0000000000000000e+00 0.0000000000000000e+00  2.2942129960890376e-01 0.0000000000000000e+00 0.0000000000000000e+00  2.8268680112792582e-01 0.0000000000000000e+00 0.0000000000000000e+00  3.4731269859468511e-01 0.0000000000000000e+00 0.0000000000000000e+00  0.0000000000000000e+00 1.9467927402453896e-04 0.0000000000000000e+00  2.1015967611376344e-04 2.1015967611838244e-04 0.0000000000000000e+00  4.0542795643084249e-04 2.4612715082784426e-04 0.0000000000000000e+00  5.7316440547950168e-04 3.0272394883628349e-04 0.0000000000000000e+00  6.9929725201874906e-04 3.8073109202249811e-04 0.0000000000000000e+00  7.7107591909118096e-04 4.8027165572116513e-04 0.0000000000000000e+00  7.7727715672502124e-04 6.0109739673342669e-04 0.0000000000000000e+00  7.0846337586539685e-04 7.4276199177484821e-04 0.0000000000000000e+00  5.5734034169794460e-04 9.0468190145908203e-04 0.0000000000000000e+00  3.1917199866008061e-04 1.0861526016059521e-03 0.0000000000000000e+00  -7.7604924651822101e-06 1.2863492412688671e-03 0.0000000000000000e+00  -4.2165611340975892e-04 1.5043217530731673e-03 0.0000000000000000e+00  -9.1664415221812882e-04 1.7389877743498464e-03 0.0000000000000000e+00  -1.4821818982818460e-03 1.9891245965246583e-03 0.0000000000000000e+00  -2.1023935880955589e-03 2.2533606812975004e-03 0.0000000000000000e+00  -2.7553433754614162e-03 2.5301670655207401e-03 0.0000000000000000e+00  -3.4122339629186291e-03 2.8178489107151851e-03 0.0000000000000000e+00  -4.0365210470585042e-03 3.1145374399094870e-03 0.0000000000000000e+00  -4.5829317552865765e-03 3.4181825105495667e-03 0.0000000000000000e+00  -4.9963726173048147e-03 3.7265460850219242e-03 0.0000000000000000e+00  -5.2107091084348939e-03 4.0371968740965146e-03 0.0000000000000000e+00  -5.1473941420358002e-03 4.3475064401706778e-03 0.0000000000000000e+00  -4.7139166957703912e-03 4.6546470543442882e-03 0.0000000000000000e+00  -3.8020335106356516e-03 4.9555916004847744e-03 0.0000000000000000e+00  -2.2857357750186960e-03 5.2471158080206410e-03 0.0000000000000000e+00  -1.8887869398699168e-05 5.5258030672882229e-03 0.0000000000000000e+00  3.1675448858260037e-03 5.7880520300306196e-03 0.0000000000000000e+00  7.4687901415640143e-03 6.0300871120298706e-03 0.0000000000000000e+00  1.3110233074447490e-02 6.2479718789193121e-03 0.0000000000000000e+00  2.0352254537565541e-02 6.4376250885577529e-03 0.0000000000000000e+00  2.9496223026875566e-02 6.5948388494609152e-03 0.0000000000000000e+00  4.0892033389392957e-02 6.7152978833282008e-03 0.0000000000000000e+00  5.4947753131404611e-02 6.7945981464458179e-03 0.0000000000000000e+00  7.2142193505005614e-02 6.8282618562978360e-03 0.0000000000000000e+00  9.3041624618663291e-02 6.8117438962704739e-03 0.0000000000000000e+00  1.1832250432859892e-01 6.7404215304027928e-03 0.0000000000000000e+00  1.4880318049357019e-01 6.6095596283299272e-03 0.0000000000000000e+00  1.8548942240315008e-01 6.4142769645400268e-03 0.0000000000000000e+00  2.2964203164316943e-01 6.1497408389313479e-03 0.0000000000000000e+00  2.8288036908641695e-01 5.8126189671019353e-03 0.0000000000000000e+00  3.4733593294138015e-01 5.4064069920834309e-03 0.0000000000000000e+00  0.0000000000000000e+00 3.8027273677952359e-04 0.0000000000000000e+00  2.4612715082740152e-04 4.0542795643842269e-04 0.0000000000000000e+00  4.7519365238796326e-04 4.7519365239091923e-04 0.0000000000000000e+00  6.7611511648119993e-04 5.8848413595537251e-04 0.0000000000000000e+00  8.3542706539244051e-04 7.4511091044593923e-04 0.0000000000000000e+00  9.4048366077391951e-04 9.4474565478709074e-04 0.0000000000000000e+00  9.8002395275592949e-04 1.1868033318240575e-03 0.0000000000000000e+00  9.4455134452158212e-04 1.4704250517711085e-03 0.0000000000000000e+00  8.2671306693042732e-04 1.7944903558196389e-03 0.0000000000000000e+00  6.2171403753104012e-04 2.1576272101485609e-03 0.0000000000000000e+00  3.2777174640841042e-04 2.5582129115276154e-03 0.0000000000000000e+00  -5.3384613396499347e-05 2.9943674729423181e-03 0.0000000000000000e+00  -5.1596679567886554e-04 3.4639421314957629e-03 0.0000000000000000e+00  -1.0495268697658471e-03 3.9645049732350999e-03 0.0000000000000000e+00  -1.6382972431337839e-03 4.4933249936496642e-03 0.0000000000000000e+00  -2.2604642440302745e-03 5.0473554951675206e-03 0.0000000000000000e+00  -2.8873669651484188e-03 5.6232175092850601e-03 0.0000000000000000e+00  -3.4826115417075565e-03 6.2171838387226393e-03 0.0000000000000000e+00  -4.0010890359515891e-03 6.8251642857771961e-03 0.0000000000000000e+00  -4.3878824502031144e-03 7.4426926361189812e-03 0.0000000000000000e+00  -4.5770448751010148e-03 8.0649159826633784e-03 0.0000000000000000e+00  -4.4902261139142191e-03 8.6865869928997134e-03 0.0000000000000000e+00  -4.0351189279949152e-03 9.3020597370597341e-03 0.0000000000000000e+00  -3.1036878000024431e-03 9.9052896977271342e-03 0.0000000000000000e+00  -1.5701320840592510e-03 1.0489838568123530e-02 0.0000000000000000e+00  7.1147942614487925e-04 1.1048884407988997e-02 0.0000000000000000e+00  3.9099856134500212e-03 1.1575237653295196e-02 0.0000000000000000e+00  8.2204325445140881e-03 1.2061363354491910e-02 0.0000000000000000e+00  1.3868044393080274e-02 1.2499409829667438e-02 0.0000000000000000e+00  2.1113068755347835e-02 1.2881243638218295e-02 0.0000000000000000e+00  3.0256776533517729e-02 1.3198490372211037e-02 0.0000000000000000e+00  4.1649009059084828e-02 1.3442580180353060e-02 0.0000000000000000e+00  5.5697832438289969e-02 1.3604796126504242e-02 0.0000000000000000e+00  7.2882113701081164e-02 1.3676322435868797e-02 0.0000000000000000e+00  9.3768230864168259e-02 1.3648288718580729e-02 0.0000000000000000e+00  1.1903276812381264e-01 1.3511806914972502e-02 0.0000000000000000e+00  1.4949411012714212e-01 1.3258003989093528e-02 0.0000000000000000e+00  1.8615768605175140e-01 1.2878065022192905e-02 0.0000000000000000e+00  2.3028291017178104e-01 1.2363241972915382e-02 0.0000000000000000e+00  2.8348584744324862e-01 1.1704101674838503e-02 0.0000000000000000e+00  3.4790274434590446e-01 1.0884167157584890e-02 0.0000000000000000e+00  0.0000000000000000e+00 5.3759709433057667e-04 0.0000000000000000e+00  3.0272394883033686e-04 5.7316440548762951e-04 0.0000000000000000e+00  5.8848413595389388e-04 6.7611511648341973e-04 0.0000000000000000e+00  8.4535865390765951e-04 8.4535865390428049e-04 0.0000000000000000e+00  1.0603841305466270e-03 1.0801853361299830e-03 0.0000000000000000e+00  1.2210772596705272e-03 1.3798103934683000e-03 0.0000000000000000e+00  1.3162154288213657e-03 1.7431810044244030e-03 0.0000000000000000e+00  1.3362813749615598e-03 2.1689312960665652e-03 0.0000000000000000e+00  1.2738693135727224e-03 2.6553624877428514e-03 0.0000000000000000e+00  1.1241093328176761e-03 3.2004273565261385e-03 0.0000000000000000e+00  8.8512523280330697e-04 3.8017145087620263e-03 0.0000000000000000e+00  5.5853348474161116e-04 4.4564305874176605e-03 0.0000000000000000e+00  1.4998935255044709e-04 5.1613799157351776e-03 0.0000000000000000e+00  -3.3021385985038826e-04 5.9129418870924435e-03 0.0000000000000000e+00  -8.6648598567322019e-04 6.7070467738436414e-03 0.0000000000000000e+00  -1.4372143358216832e-03 7.5391507481680090e-03 0.0000000000000000e+00  -2.0139628211142233e-03 8.4042109345603775e-03 0.0000000000000000e+00  -2.5605859747614679e-03 9.2966613208481305e-03 0.0000000000000000e+00  -3.0322459980841442e-03 1.0210390368480825e-02 0.0000000000000000e+00  -3.3743183014094884e-03 1.1138721187492795e-02 0.0000000000000000e+00  -3.5211674936618071e-03 1.2074395172447435e-02 0.0000000000000000e+00  -3.3947711070620259e-03 1.3009560026506252e-02 0.0000000000000000e+00  -2.9031621477536764e-03 1.3935763124780703e-02 0.0000000000000000e+00  -1.9386533177187845e-03 1.4843951176959115e-02 0.0000000000000000e+00  -3.7579473165195168e-04 1.5724477135678486e-02 0.0000000000000000e+00  1.9309978755958454e-03 1.6567115249840322e-02 0.0000000000000000e+00  5.1502275736186685e-03 1.7361085068225604e-02 0.0000000000000000e+00  9.4766239974005666e-03 1.8095085039740801e-02 0.0000000000000000e+00  1.5135123429961332e-02 1.8757336106983342e-02 0.0000000000000000e+00  2.2385724081437276e-02 1.9335635314455257e-02 0.0000000000000000e+00  3.1529496523104168e-02 1.9817418901162748e-02 0.0000000000000000e+00  4.2916141500339906e-02 2.0189833549605487e-02 0.0000000000000000e+00  5.6953654197838890e-02 2.0439813317331256e-02 0.0000000000000000e+00  7.4120907754418680e-02 2.0554158115305258e-02 0.0000000000000000e+00  9.4984364900395912e-02 2.0519606974570347e-02 0.0000000000000000e+00  1.2022076377633903e-01 2.0322893874702892e-02 0.0000000000000000e+00  1.5064868458833885e-01 1.9950756866568591e-02 0.0000000000000000e+00  1.8727373338342165e-01 1.9389806721323549e-02 0.0000000000000000e+00  2.3135533147009299e-01 1.8625929387056383e-02 0.0000000000000000e+00  2.8450896706980650e-01 1.7642213959769712e-02 0.0000000000000000e+00  3.4886879395521703e-01 1.6413065594619986e-02 0.0000000000000000e+00  0.0000000000000000e+00 6.5285657860819711e-04 0.0000000000000000e+00  3.8073109202431784e-04 6.9929725202099130e-04 0.0000000000000000e+00  7.4511091045291467e-04 8.3542706538802640e-04 0.0000000000000000e+00  1.0801853361369930e-03 1.0603841305415118e-03 0.0000000000000000e+00  1.3731603442937602e-03 1.3731603442881954e-03 0.0000000000000000e+00  1.6116774265528707e-03 1.7725930313747639e-03 0.0000000000000000e+00  1.7845487543892127e-03 2.2571984360098218e-03 0.0000000000000000e+00  1.8822377892359628e-03 2.8251105812554965e-03 0.0000000000000000e+00  1.8972820310149399e-03 3.4740483177064054e-03 0.0000000000000000e+00  1.8247232175049889e-03 4.2012881835163897e-03 0.0000000000000000e+00  1.6625668937904155e-03 5.0036369590150355e-03 0.0000000000000000e+00  1.4122812988940575e-03 5.8774024949854497e-03 0.0000000000000000e+00  1.0793425908942576e-03 6.8183626249313893e-03 0.0000000000000000e+00  6.7383293290652262e-04 7.8217323900433046e-03 0.0000000000000000e+00  2.1109824780940459e-04 8.8821300576028567e-03 0.0000000000000000e+00  -2.8752685682052498e-04 9.9935426055381867e-03 0.0000000000000000e+00  -7.9391844211389802e-04 1.1149291493455846e-02 0.0000000000000000e+00  -1.2722768594264275e-03 1.2341999655124359e-02 0.0000000000000000e+00  -1.6781426571378340e-03 1.3563560739740679e-02 0.0000000000000000e+00  -1.9573001503328520e-03 1.4805111709208727e-02 0.0000000000000000e+00  -2.0445505195723149e-03 1.6057009967396649e-02 0.0000000000000000e+00  -1.8623316428291103e-03 1.7308816255082592e-02 0.0000000000000000e+00  -1.3191556749072130e-03 1.8549284586454256e-02 0.0000000000000000e+00  -3.0782715146322504e-04 1.9766360522634179e-02 0.0000000000000000e+00  1.2966066144317401e-03 2.0947189065228362e-02 0.0000000000000000e+00  3.6392358850889307e-03 2.2078133395906484e-02 0.0000000000000000e+00  6.8880827341827443e-03 2.3144805567875550e-02 0.0000000000000000e+00  1.1237419843423887e-02 2.4132110047710379e-02 0.0000000000000000e+00  1.6911762765449225e-02 2.5024300674018767e-02 0.0000000000000000e+00  2.4170738370257291e-02 2.5805051089765406e-02 0.0000000000000000e+00  3.3315109163455432e-02 2.6457537933754823e-02 0.0000000000000000e+00  4.4694345258867028e-02 2.6964534903797893e-02 0.0000000000000000e+00  5.8716302373124293e-02 2.7308513962305676e-02 0.0000000000000000e+00  7.5859817509319680e-02 2.7471746838449062e-02 0.0000000000000000e+00  9.6691429254618252e-02 2.7436394007831752e-02 0.0000000000000000e+00  1.2188806446748084e-01 2.7184555122949459e-02 0.0000000000000000e+00  1.5226858493894696e-01 2.6698222802461598e-02 0.0000000000000000e+00  1.8883888551053379e-01 2.5959004562725627e-02 0.0000000000000000e+00  2.3285840205104766e-01 2.4947318650765101e-02 0.0000000000000000e+00  2.8594167343636495e-01 2.3640571707267358e-02 0.0000000000000000e+00  3.5022002911449451e-01 2.2010102512301809e-02 0.0000000000000000e+00  0.0000000000000000e+00 7.1358854001988159e-04 0.0000000000000000e+00  4.8027165572442891e-04 7.7107591909177640e-04 0.0000000000000000e+00  9.4474565478954527e-04 9.4048366077164117e-04 0.0000000000000000e+00  1.3798103934716673e-03 1.2210772596615426e-03 0.0000000000000000e+00  1.7725930313819858e-03 1.6116774265446860e-03 0.0000000000000000e+00  2.1108023886872605e-03 2.1108023886781645e-03 0.0000000000000000e+00  2.3832711956197706e-03 2.7165751823293696e-03 0.0000000000000000e+00  2.5804352236337281e-03 3.4266588657431360e-03 0.0000000000000000e+00  2.6947636691808767e-03 4.2382145466446138e-03 0.0000000000000000e+00  2.7211924434232880e-03 5.1478652016672772e-03 0.0000000000000000e+00  2.6575837705381153e-03 6.1516590795580783e-03 0.0000000000000000e+00  2.5052237800827571e-03 7.2450309492256464e-03 0.0000000000000000e+00  2.2693660180092925e-03 8.4227609998502560e-03 0.0000000000000000e+00  1.9598278428504209e-03 9.6789317732212544e-03 0.0000000000000000e+00  1.5916467746171087e-03 1.1006883769344826e-02 0.0000000000000000e+00  1.1858044866073566e-03 1.2399170535963963e-02 0.0000000000000000e+00  7.7002714981986209e-04 1.3847514197495045e-02 0.0000000000000000e+00  3.7967228213124649e-04 1.5342762513975121e-02 0.0000000000000000e+00  5.8714217386686411e-05 1.6874848687245213e-02 0.0000000000000000e+00  -1.3915705896988810e-04 1.8432755248346231e-02 0.0000000000000000e+00  -1.4930545580388527e-04 2.0004483463824250e-02 0.0000000000000000e+00  1.0523620300012359e-04 2.1577029785564601e-02 0.0000000000000000e+00  7.1533477080937019e-04 2.3136370934073065e-02 0.0000000000000000e+00  1.7875462955080346e-03 2.4667459239029171e-02 0.0000000000000000e+00  3.4461747649630536e-03 2.6154229853737353e-02 0.0000000000000000e+00  5.8356631674701259e-03 2.7579621394793360e-02 0.0000000000000000e+00  9.1234000083250787e-03 2.8925611412196184e-02 0.0000000000000000e+00  1.3503051915194656e-02 3.0173267836287855e-02 0.0000000000000000e+00  1.9198571119797236e-02 3.1302817125612066e-02 0.0000000000000000e+00  2.6469080314371361e-02 3.2293729179278849e-02 0.0000000000000000e+00  3.5614914210625508e-02 3.3124818053520258e-02 0.0000000000000000e+00  4.6985209011747499e-02 3.3774355917499978e-02 0.0000000000000000e+00  6.0987597232113555e-02 3.4220195082569550e-02 0.0000000000000000e+00  7.8100817852145718e-02 3.4439888477588054e-02 0.0000000000000000e+00  9.8891445219802213e-02 3.4410790770008311e-02 0.0000000000000000e+00  1.2403657012681549e-01 3.4110106629868166e-02 0.0000000000000000e+00  1.5435530624624194e-01 3.3514822730505101e-02 0.0000000000000000e+00  1.9085376941065543e-01 3.2601409259351247e-02 0.0000000000000000e+00  2.3479132990417678e-01 3.1345117213010538e-02 0.0000000000000000e+00  2.8778187319415971e-01 2.9718718615373604e-02 0.0000000000000000e+00  3.5195602272356158e-01 2.7690877321669576e-02 0.0000000000000000e+00  0.0000000000000000e+00 7.0868861322491807e-04 0.0000000000000000e+00  6.0109739673554913e-04 7.7727715672262765e-04 0.0000000000000000e+00  1.1868033318237494e-03 9.8002395275601406e-04 0.0000000000000000e+00  1.7431810044258543e-03 1.3162154288115554e-03 0.0000000000000000e+00  2.2571984360108036e-03 1.7845487543799053e-03 0.0000000000000000e+00  2.7165751823257493e-03 2.3832711956143170e-03 0.0000000000000000e+00  3.1101477899805165e-03 3.1101477899835245e-03 0.0000000000000000e+00  3.4283157188391609e-03 3.9624031003968625e-03 0.0000000000000000e+00  3.6634690649754850e-03 4.9366732887632173e-03 0.0000000000000000e+00  3.8104214880941016e-03 6.0289618459957901e-03 0.0000000000000000e+00  3.8668682523684242e-03 7.2345942954803654e-03 0.0000000000000000e+00  3.8338814502715027e-03 8.5481701888226805e-03 0.0000000000000000e+00  3.7164509163870466e-03 9.9635121760275093e-03 0.0000000000000000e+00  3.5240781975946558e-03 1.1473612581593257e-02 0.0000000000000000e+00  3.2714309112895608e-03 1.3070578244988976e-02 0.0000000000000000e+00  2.9790653758645538e-03 1.4745574591040500e-02 0.0000000000000000e+00  2.6742263867689819e-03 1.6488770062788167e-02 0.0000000000000000e+00  2.3917344421734753e-03 1.8289282202017934e-02 0.0000000000000000e+00  2.1749726809670673e-03 2.0135126809721397e-02 0.0000000000000000e+00  2.0769884251122489e-03 2.2013171759280650e-02 0.0000000000000000e+00  2.1617277205478115e-03 2.3909097164838820e-02 0.0000000000000000e+00  2.5054259200802229e-03 2.5807363719608921e-02 0.0000000000000000e+00  3.1981835231913811e-03 2.7691191106831957e-02 0.0000000000000000e+00  4.3457646969796071e-03 2.9542548437147622e-02 0.0000000000000000e+00  6.0716668708484982e-03 3.1342158668202745e-02 0.0000000000000000e+00  8.5195245475947305e-03 3.3069518893846926e-02 0.0000000000000000e+00  1.1855930479584185e-02 3.4702938225279492e-02 0.0000000000000000e+00  1.6273784780960490e-02 3.6219594683025325e-02 0.0000000000000000e+00  2.1996320604174009e-02 3.7595612016630905e-02 0.0000000000000000e+00  2.9282008581873697e-02 3.8806156572583378e-02 0.0000000000000000e+00  3.8430618863990865e-02 3.9825553086214216e-02 0.0000000000000000e+00  4.9790831151863647e-02 4.0627416320237697e-02 0.0000000000000000e+00  6.3769948815996846e-02 4.1184792357398817e-02 0.0000000000000000e+00  8.0846524687138752e-02 4.1470298266668662e-02 0.0000000000000000e+00  1.0158709738165674e-01 4.1456240406241344e-02 0.0000000000000000e+00  1.2666886287354920e-01 4.1114677692851813e-02 0.0000000000000000e+00  1.5691113956807889e-01 4.0417374693926963e-02 0.0000000000000000e+00  1.93320