<?xml version="1.0"?>
<VTKFile type="UnstructuredGrid"  version="0.1"  >
<UnstructuredGrid>
<Piece  NumberOfPoints="1681" NumberOfCells="3200">
<Points>
<DataArray  type="Float64"  NumberOfComponents="3"  format="ascii">0 0 0  0.5 0 0  1 0 0  1.5 0 0  2 0 0  2.5 0 0  3 0 0  3.5 0 0  4 0 0  4.5 0 0  5 0 0  5.5 0 0  6 0 0  6.5 0 0  7 0 0  7.5 0 0  8 0 0  8.5 0 0  9 0 0  9.5 0 0  10 0 0  10.5 0 0  11 0 0  11.5 0 0  12 0 0  12.5 0 0  13 0 0  13.5 0 0  14 0 0  14.5 0 0  15 0 0  15.5 0 0  16 0 0  16.5 0 0  17 0 0  17.5 0 0  18 0 0  18.5 0 0  19 0 0  19.5 0 0  20 0 0  0 0.5 0  0.5 0.5 0  1 0.5 0  1.5 0.5 0  2 0.5 0  2.5 0.5 0  3 0.5 0  3.5 0.5 0  4 0.5 0  4.5 0.5 0  5 0.5 0  5.5 0.5 0  6 0.5 0  6.5 0.5 0  7 0.5 0  7.5 0.5 0  8 0.5 0  8.5 0.5 0  9 0.5 0  9.5 0.5 0  10 0.5 0  10.5 0.5 0  11 0.5 0  11.5 0.5 0  12 0.5 0  12.5 0.5 0  13 0.5 0  13.5 0.5 0  14 0.5 0  14.5 0.5 0  15 0.5 0  15.5 0.5 0  16 0.5 0  16.5 0.5 0  17 0.5 0  17.5 0.5 0  18 0.5 0  18.5 0.5 0  19 0.5 0  19.5 0.5 0  20 0.5 0  0 1 0  0.5 1 0  1 1 0  1.5 1 0  2 1 0  2.5 1 0  3 1 0  3.5 1 0  4 1 0  4.5 1 0  5 1 0  5.5 1 0  6 1 0  6.5 1 0  7 1 0  7.5 1 0  8 1 0  8.5 1 0  9 1 0  9.5 1 0  10 1 0  10.5 1 0  11 1 0  11.5 1 0  12 1 0  12.5 1 0  13 1 0  13.5 1 0  14 1 0  14.5 1 0  15 1 0  15.5 1 0  16 1 0  16.5 1 0  17 1 0  17.5 1 0  18 1 0  18.5 1 0  19 1 0  19.5 1 0  20 1 0  0 1.5 0  0.5 1.5 0  1 1.5 0  1.5 1.5 0  2 1.5 0  2.5 1.5 0  3 1.5 0  3.5 1.5 0  4 1.5 0  4.5 1.5 0  5 1.5 0  5.5 1.5 0  6 1.5 0  6.5 1.5 0  7 1.5 0  7.5 1.5 0  8 1.5 0  8.5 1.5 0  9 1.5 0  9.5 1.5 0  10 1.5 0  10.5 1.5 0  11 1.5 0  11.5 1.5 0  12 1.5 0  12.5 1.5 0  13 1.5 0  13.5 1.5 0  14 1.5 0  14.5 1.5 0  15 1.5 0  15.5 1.5 0  16 1.5 0  16.5 1.5 0  17 1.5 0  17.5 1.5 0  18 1.5 0  18.5 1.5 0  19 1.5 0  19.5 1.5 0  20 1.5 0  0 2 0  0.5 2 0  1 2 0  1.5 2 0  2 2 0  2.5 2 0  3 2 0  3.5 2 0  4 2 0  4.5 2 0  5 2 0  5.5 2 0  6 2 0  6.5 2 0  7 2 0  7.5 2 0  8 2 0  8.5 2 0  9 2 0  9.5 2 0  10 2 0  10.5 2 0  11 2 0  11.5 2 0  12 2 0  12.5 2 0  13 2 0  13.5 2 0  14 2 0  14.5 2 0  15 2 0  15.5 2 0  16 2 0  16.5 2 0  17 2 0  17.5 2 0  18 2 0  18.5 2 0  19 2 0  19.5 2 0  20 2 0  0 2.5 0  0.5 2.5 0  1 2.5 0  1.5 2.5 0  2 2.5 0  2.5 2.5 0  3 2.5 0  3.5 2.5 0  4 2.5 0  4.5 2.5 0  5 2.5 0  5.5 2.5 0  6 2.5 0  6.5 2.5 0  7 2.5 0  7.5 2.5 0  8 2.5 0  8.5 2.5 0  9 2.5 0  9.5 2.5 0  10 2.5 0  10.5 2.5 0  11 2.5 0  11.5 2.5 0  12 2.5 0  12.5 2.5 0  13 2.5 0  13.5 2.5 0  14 2.5 0  14.5 2.5 0  15 2.5 0  15.5 2.5 0  16 2.5 0  16.5 2.5 0  17 2.5 0  17.5 2.5 0  18 2.5 0  18.5 2.5 0  19 2.5 0  19.5 2.5 0  20 2.5 0  0 3 0  0.5 3 0  1 3 0  1.5 3 0  2 3 0  2.5 3 0  3 3 0  3.5 3 0  4 3 0  4.5 3 0  5 3 0  5.5 3 0  6 3 0  6.5 3 0  7 3 0  7.5 3 0  8 3 0  8.5 3 0  9 3 0  9.5 3 0  10 3 0  10.5 3 0  11 3 0  11.5 3 0  12 3 0  12.5 3 0  13 3 0  13.5 3 0  14 3 0  14.5 3 0  15 3 0  15.5 3 0  16 3 0  16.5 3 0  17 3 0  17.5 3 0  18 3 0  18.5 3 0  19 3 0  19.5 3 0  20 3 0  0 3.5 0  0.5 3.5 0  1 3.5 0  1.5 3.5 0  2 3.5 0  2.5 3.5 0  3 3.5 0  3.5 3.5 0  4 3.5 0  4.5 3.5 0  5 3.5 0  5.5 3.5 0  6 3.5 0  6.5 3.5 0  7 3.5 0  7.5 3.5 0  8 3.5 0  8.5 3.5 0  9 3.5 0  9.5 3.5 0  10 3.5 0  10.5 3.5 0  11 3.5 0  11.5 3.5 0  12 3.5 0  12.5 3.5 0  13 3.5 0  13.5 3.5 0  14 3.5 0  14.5 3.5 0  15 3.5 0  15.5 3.5 0  16 3.5 0  16.5 3.5 0  17 3.5 0  17.5 3.5 0  18 3.5 0  18.5 3.5 0  19 3.5 0  19.5 3.5 0  20 3.5 0  0 4 0  0.5 4 0  1 4 0  1.5 4 0  2 4 0  2.5 4 0  3 4 0  3.5 4 0  4 4 0  4.5 4 0  5 4 0  5.5 4 0  6 4 0  6.5 4 0  7 4 0  7.5 4 0  8 4 0  8.5 4 0  9 4 0  9.5 4 0  10 4 0  10.5 4 0  11 4 0  11.5 4 0  12 4 0  12.5 4 0  13 4 0  13.5 4 0  14 4 0  14.5 4 0  15 4 0  15.5 4 0  16 4 0  16.5 4 0  17 4 0  17.5 4 0  18 4 0  18.5 4 0  19 4 0  19.5 4 0  20 4 0  0 4.5 0  0.5 4.5 0  1 4.5 0  1.5 4.5 0  2 4.5 0  2.5 4.5 0  3 4.5 0  3.5 4.5 0  4 4.5 0  4.5 4.5 0  5 4.5 0  5.5 4.5 0  6 4.5 0  6.5 4.5 0  7 4.5 0  7.5 4.5 0  8 4.5 0  8.5 4.5 0  9 4.5 0  9.5 4.5 0  10 4.5 0  10.5 4.5 0  11 4.5 0  11.5 4.5 0  12 4.5 0  12.5 4.5 0  13 4.5 0  13.5 4.5 0  14 4.5 0  14.5 4.5 0  15 4.5 0  15.5 4.5 0  16 4.5 0  16.5 4.5 0  17 4.5 0  17.5 4.5 0  18 4.5 0  18.5 4.5 0  19 4.5 0  19.5 4.5 0  20 4.5 0  0 5 0  0.5 5 0  1 5 0  1.5 5 0  2 5 0  2.5 5 0  3 5 0  3.5 5 0  4 5 0  4.5 5 0  5 5 0  5.5 5 0  6 5 0  6.5 5 0  7 5 0  7.5 5 0  8 5 0  8.5 5 0  9 5 0  9.5 5 0  10 5 0  10.5 5 0  11 5 0  11.5 5 0  12 5 0  12.5 5 0  13 5 0  13.5 5 0  14 5 0  14.5 5 0  15 5 0  15.5 5 0  16 5 0  16.5 5 0  17 5 0  17.5 5 0  18 5 0  18.5 5 0  19 5 0  19.5 5 0  20 5 0  0 5.5 0  0.5 5.5 0  1 5.5 0  1.5 5.5 0  2 5.5 0  2.5 5.5 0  3 5.5 0  3.5 5.5 0  4 5.5 0  4.5 5.5 0  5 5.5 0  5.5 5.5 0  6 5.5 0  6.5 5.5 0  7 5.5 0  7.5 5.5 0  8 5.5 0  8.5 5.5 0  9 5.5 0  9.5 5.5 0  10 5.5 0  10.5 5.5 0  11 5.5 0  11.5 5.5 0  12 5.5 0  12.5 5.5 0  13 5.5 0  13.5 5.5 0  14 5.5 0  14.5 5.5 0  15 5.5 0  15.5 5.5 0  16 5.5 0  16.5 5.5 0  17 5.5 0  17.5 5.5 0  18 5.5 0  18.5 5.5 0  19 5.5 0  19.5 5.5 0  20 5.5 0  0 6 0  0.5 6 0  1 6 0  1.5 6 0  2 6 0  2.5 6 0  3 6 0  3.5 6 0  4 6 0  4.5 6 0  5 6 0  5.5 6 0  6 6 0  6.5 6 0  7 6 0  7.5 6 0  8 6 0  8.5 6 0  9 6 0  9.5 6 0  10 6 0  10.5 6 0  11 6 0  11.5 6 0  12 6 0  12.5 6 0  13 6 0  13.5 6 0  14 6 0  14.5 6 0  15 6 0  15.5 6 0  16 6 0  16.5 6 0  17 6 0  17.5 6 0  18 6 0  18.5 6 0  19 6 0  19.5 6 0  20 6 0  0 6.5 0  0.5 6.5 0  1 6.5 0  1.5 6.5 0  2 6.5 0  2.5 6.5 0  3 6.5 0  3.5 6.5 0  4 6.5 0  4.5 6.5 0  5 6.5 0  5.5 6.5 0  6 6.5 0  6.5 6.5 0  7 6.5 0  7.5 6.5 0  8 6.5 0  8.5 6.5 0  9 6.5 0  9.5 6.5 0  10 6.5 0  10.5 6.5 0  11 6.5 0  11.5 6.5 0  12 6.5 0  12.5 6.5 0  13 6.5 0  13.5 6.5 0  14 6.5 0  14.5 6.5 0  15 6.5 0  15.5 6.5 0  16 6.5 0  16.5 6.5 0  17 6.5 0  17.5 6.5 0  18 6.5 0  18.5 6.5 0  19 6.5 0  19.5 6.5 0  20 6.5 0  0 7 0  0.5 7 0  1 7 0  1.5 7 0  2 7 0  2.5 7 0  3 7 0  3.5 7 0  4 7 0  4.5 7 0  5 7 0  5.5 7 0  6 7 0  6.5 7 0  7 7 0  7.5 7 0  8 7 0  8.5 7 0  9 7 0  9.5 7 0  10 7 0  10.5 7 0  11 7 0  11.5 7 0  12 7 0  12.5 7 0  13 7 0  13.5 7 0  14 7 0  14.5 7 0  15 7 0  15.5 7 0  16 7 0  16.5 7 0  17 7 0  17.5 7 0  18 7 0  18.5 7 0  19 7 0  19.5 7 0  20 7 0  0 7.5 0  0.5 7.5 0  1 7.5 0  1.5 7.5 0  2 7.5 0  2.5 7.5 0  3 7.5 0  3.5 7.5 0  4 7.5 0  4.5 7.5 0  5 7.5 0  5.5 7.5 0  6 7.5 0  6.5 7.5 0  7 7.5 0  7.5 7.5 0  8 7.5 0  8.5 7.5 0  9 7.5 0  9.5 7.5 0  10 7.5 0  10.5 7.5 0  11 7.5 0  11.5 7.5 0  12 7.5 0  12.5 7.5 0  13 7.5 0  13.5 7.5 0  14 7.5 0  14.5 7.5 0  15 7.5 0  15.5 7.5 0  16 7.5 0  16.5 7.5 0  17 7.5 0  17.5 7.5 0  18 7.5 0  18.5 7.5 0  19 7.5 0  19.5 7.5 0  20 7.5 0  0 8 0  0.5 8 0  1 8 0  1.5 8 0  2 8 0  2.5 8 0  3 8 0  3.5 8 0  4 8 0  4.5 8 0  5 8 0  5.5 8 0  6 8 0  6.5 8 0  7 8 0  7.5 8 0  8 8 0  8.5 8 0  9 8 0  9.5 8 0  10 8 0  10.5 8 0  11 8 0  11.5 8 0  12 8 0  12.5 8 0  13 8 0  13.5 8 0  14 8 0  14.5 8 0  15 8 0  15.5 8 0  16 8 0  16.5 8 0  17 8 0  17.5 8 0  18 8 0  18.5 8 0  19 8 0  19.5 8 0  20 8 0  0 8.5 0  0.5 8.5 0  1 8.5 0  1.5 8.5 0  2 8.5 0  2.5 8.5 0  3 8.5 0  3.5 8.5 0  4 8.5 0  4.5 8.5 0  5 8.5 0  5.5 8.5 0  6 8.5 0  6.5 8.5 0  7 8.5 0  7.5 8.5 0  8 8.5 0  8.5 8.5 0  9 8.5 0  9.5 8.5 0  10 8.5 0  10.5 8.5 0  11 8.5 0  11.5 8.5 0  12 8.5 0  12.5 8.5 0  13 8.5 0  13.5 8.5 0  14 8.5 0  14.5 8.5 0  15 8.5 0  15.5 8.5 0  16 8.5 0  16.5 8.5 0  17 8.5 0  17.5 8.5 0  18 8.5 0  18.5 8.5 0  19 8.5 0  19.5 8.5 0  20 8.5 0  0 9 0  0.5 9 0  1 9 0  1.5 9 0  2 9 0  2.5 9 0  3 9 0  3.5 9 0  4 9 0  4.5 9 0  5 9 0  5.5 9 0  6 9 0  6.5 9 0  7 9 0  7.5 9 0  8 9 0  8.5 9 0  9 9 0  9.5 9 0  10 9 0  10.5 9 0  11 9 0  11.5 9 0  12 9 0  12.5 9 0  13 9 0  13.5 9 0  14 9 0  14.5 9 0  15 9 0  15.5 9 0  16 9 0  16.5 9 0  17 9 0  17.5 9 0  18 9 0  18.5 9 0  19 9 0  19.5 9 0  20 9 0  0 9.5 0  0.5 9.5 0  1 9.5 0  1.5 9.5 0  2 9.5 0  2.5 9.5 0  3 9.5 0  3.5 9.5 0  4 9.5 0  4.5 9.5 0  5 9.5 0  5.5 9.5 0  6 9.5 0  6.5 9.5 0  7 9.5 0  7.5 9.5 0  8 9.5 0  8.5 9.5 0  9 9.5 0  9.5 9.5 0  10 9.5 0  10.5 9.5 0  11 9.5 0  11.5 9.5 0  12 9.5 0  12.5 9.5 0  13 9.5 0  13.5 9.5 0  14 9.5 0  14.5 9.5 0  15 9.5 0  15.5 9.5 0  16 9.5 0  16.5 9.5 0  17 9.5 0  17.5 9.5 0  18 9.5 0  18.5 9.5 0  19 9.5 0  19.5 9.5 0  20 9.5 0  0 10 0  0.5 10 0  1 10 0  1.5 10 0  2 10 0  2.5 10 0  3 10 0  3.5 10 0  4 10 0  4.5 10 0  5 10 0  5.5 10 0  6 10 0  6.5 10 0  7 10 0  7.5 10 0  8 10 0  8.5 10 0  9 10 0  9.5 10 0  10 10 0  10.5 10 0  11 10 0  11.5 10 0  12 10 0  12.5 10 0  13 10 0  13.5 10 0  14 10 0  14.5 10 0  15 10 0  15.5 10 0  16 10 0  16.5 10 0  17 10 0  17.5 10 0  18 10 0  18.5 10 0  19 10 0  19.5 10 0  20 10 0  0 10.5 0  0.5 10.5 0  1 10.5 0  1.5 10.5 0  2 10.5 0  2.5 10.5 0  3 10.5 0  3.5 10.5 0  4 10.5 0  4.5 10.5 0  5 10.5 0  5.5 10.5 0  6 10.5 0  6.5 10.5 0  7 10.5 0  7.5 10.5 0  8 10.5 0  8.5 10.5 0  9 10.5 0  9.5 10.5 0  10 10.5 0  10.5 10.5 0  11 10.5 0  11.5 10.5 0  12 10.5 0  12.5 10.5 0  13 10.5 0  13.5 10.5 0  14 10.5 0  14.5 10.5 0  15 10.5 0  15.5 10.5 0  16 10.5 0  16.5 10.5 0  17 10.5 0  17.5 10.5 0  18 10.5 0  18.5 10.5 0  19 10.5 0  19.5 10.5 0  20 10.5 0  0 11 0  0.5 11 0  1 11 0  1.5 11 0  2 11 0  2.5 11 0  3 11 0  3.5 11 0  4 11 0  4.5 11 0  5 11 0  5.5 11 0  6 11 0  6.5 11 0  7 11 0  7.5 11 0  8 11 0  8.5 11 0  9 11 0  9.5 11 0  10 11 0  10.5 11 0  11 11 0  11.5 11 0  12 11 0  12.5 11 0  13 11 0  13.5 11 0  14 11 0  14.5 11 0  15 11 0  15.5 11 0  16 11 0  16.5 11 0  17 11 0  17.5 11 0  18 11 0  18.5 11 0  19 11 0  19.5 11 0  20 11 0  0 11.5 0  0.5 11.5 0  1 11.5 0  1.5 11.5 0  2 11.5 0  2.5 11.5 0  3 11.5 0  3.5 11.5 0  4 11.5 0  4.5 11.5 0  5 11.5 0  5.5 11.5 0  6 11.5 0  6.5 11.5 0  7 11.5 0  7.5 11.5 0  8 11.5 0  8.5 11.5 0  9 11.5 0  9.5 11.5 0  10 11.5 0  10.5 11.5 0  11 11.5 0  11.5 11.5 0  12 11.5 0  12.5 11.5 0  13 11.5 0  13.5 11.5 0  14 11.5 0  14.5 11.5 0  15 11.5 0  15.5 11.5 0  16 11.5 0  16.5 11.5 0  17 11.5 0  17.5 11.5 0  18 11.5 0  18.5 11.5 0  19 11.5 0  19.5 11.5 0  20 11.5 0  0 12 0  0.5 12 0  1 12 0  1.5 12 0  2 12 0  2.5 12 0  3 12 0  3.5 12 0  4 12 0  4.5 12 0  5 12 0  5.5 12 0  6 12 0  6.5 12 0  7 12 0  7.5 12 0  8 12 0  8.5 12 0  9 12 0  9.5 12 0  10 12 0  10.5 12 0  11 12 0  11.5 12 0  12 12 0  12.5 12 0  13 12 0  13.5 12 0  14 12 0  14.5 12 0  
[...]
<PointData  Vectors="f_2975-0"> 
<DataArray  type="Float64"  Name="f_2975-0"  NumberOfComponents="3" format="ascii">0.0000000000000000e+00 0.0000000000000000e+00 0.0000000000000000e+00  1.0561382410462991e-06 0.0000000000000000e+00 0.0000000000000000e+00  -3.6779752230457624e-06 0.0000000000000000e+00 0.0000000000000000e+00  -2.3025796994791263e-05 0.0000000000000000e+00 0.0000000000000000e+00  -6.4237279164630528e-05 0.0000000000000000e+00 0.0000000000000000e+00  -1.3426090816386925e-04 0.0000000000000000e+00 0.0000000000000000e+00  -2.3976132001812507e-04 0.0000000000000000e+00 0.0000000000000000e+00  -3.8703034653663783e-04 0.0000000000000000e+00 0.0000000000000000e+00  -5.8187925503323757e-04 0.0000000000000000e+00 0.0000000000000000e+00  -8.2951355412837267e-04 0.0000000000000000e+00 0.0000000000000000e+00  -1.1343857505381875e-03 0.0000000000000000e+00 0.0000000000000000e+00  -1.5000210420530178e-03 0.0000000000000000e+00 0.0000000000000000e+00  -1.9288105209701227e-03 0.0000000000000000e+00 0.0000000000000000e+00  -2.4217658759132852e-03 0.0000000000000000e+00 0.0000000000000000e+00  -2.9782289151903721e-03 0.0000000000000000e+00 0.0000000000000000e+00  -3.5955285363658742e-03 0.0000000000000000e+00 0.0000000000000000e+00  -4.2685770531988958e-03 0.0000000000000000e+00 0.0000000000000000e+00  -4.9893970705089229e-03 0.0000000000000000e+00 0.0000000000000000e+00  -5.7465693682606069e-03 0.0000000000000000e+00 0.0000000000000000e+00  -6.5245915001563943e-03 0.0000000000000000e+00 0.0000000000000000e+00  -7.3031359912226305e-03 0.0000000000000000e+00 0.0000000000000000e+00  -8.0561960606790571e-03 0.0000000000000000e+00 0.0000000000000000e+00  -8.7511055864711047e-03 0.0000000000000000e+00 0.0000000000000000e+00  -9.3474183939680176e-03 0.0000000000000000e+00 0.0000000000000000e+00  -9.7956296460817108e-03 0.0000000000000000e+00 0.0000000000000000e+00  -1.0035718792890757e-02 0.0000000000000000e+00 0.0000000000000000e+00  -9.9954887384825341e-03 0.0000000000000000e+00 0.0000000000000000e+00  -9.5886689699773014e-03 0.0000000000000000e+00 0.0000000000000000e+00  -8.7127405132812544e-03 0.0000000000000000e+00 0.0000000000000000e+00  -7.2464265620921561e-03 0.0000000000000000e+00 0.0000000000000000e+00  -5.0467728318556214e-03 0.0000000000000000e+00 0.0000000000000000e+00  -1.9457137638433219e-03 0.0000000000000000e+00 0.0000000000000000e+00  2.2540188641053159e-03 0.0000000000000000e+00 0.0000000000000000e+00  7.7838450025479265e-03 0.0000000000000000e+00 0.0000000000000000e+00  1.4915425660049548e-02 0.0000000000000000e+00 0.0000000000000000e+00  2.3968298657560314e-02 0.0000000000000000e+00 0.0000000000000000e+00  3.5319660981104568e-02 0.0000000000000000e+00 0.0000000000000000e+00  4.9417232892115387e-02 0.0000000000000000e+00 0.0000000000000000e+00  6.6796858162754658e-02 0.0000000000000000e+00 0.0000000000000000e+00  8.8108799193594045e-02 0.0000000000000000e+00 0.0000000000000000e+00  1.1416544388536448e-01 0.0000000000000000e+00 0.0000000000000000e+00  0.0000000000000000e+00 1.0561382397808693e-06 0.0000000000000000e+00  6.2998682515479894e-06 6.2998682526410253e-06 0.0000000000000000e+00  4.9885548552317061e-06 1.8640531908865570e-05 0.0000000000000000e+00  -1.0718404614673236e-05 3.8165923637409846e-05 0.0000000000000000e+00  -4.8148214207804408e-05 6.5114993621666567e-05 0.0000000000000000e+00  -1.1433709791735466e-04 9.9510517258048190e-05 0.0000000000000000e+00  -2.1598654263287119e-04 1.4125303861716175e-04 0.0000000000000000e+00  -3.5940506643640952e-04 1.9017544988432012e-04 0.0000000000000000e+00  -5.5041416490230464e-04 2.4606162125436609e-04 0.0000000000000000e+00  -7.9422808611839639e-04 3.0865085498863604e-04 0.0000000000000000e+00  -1.0953084886271326e-03 3.7763740969018114e-04 0.0000000000000000e+00  -1.4571909604543082e-03 4.5266828662419826e-04 0.0000000000000000e+00  -1.8822786305639039e-03 5.3334036400783612e-04 0.0000000000000000e+00  -2.3715970854056405e-03 6.1919729610518187e-04 0.0000000000000000e+00  -2.9245039953906212e-03 7.0972638808473832e-04 0.0000000000000000e+00  -3.5383461055652366e-03 8.0435559733231445e-04 0.0000000000000000e+00  -4.2080555105533440e-03 9.0245079844944562e-04 0.0000000000000000e+00  -4.9256764036593762e-03 1.0033134526332289e-03 0.0000000000000000e+00  -5.6798127557702209e-03 1.1061788302435995e-03 0.0000000000000000e+00  -6.4549866215647062e-03 1.2102149450572636e-03 0.0000000000000000e+00  -7.2308959479283324e-03 1.3145223670272825e-03 0.0000000000000000e+00  -7.9815598008186484e-03 1.4181350860284412e-03 0.0000000000000000e+00  -8.6743377167250082e-03 1.5200226007400009e-03 0.0000000000000000e+00  -9.2688082510980017e-03 1.6190934028299522e-03 0.0000000000000000e+00  -9.7154894911396818e-03 1.7142000153191508e-03 0.0000000000000000e+00  -9.9543809814918848e-03 1.8041457233824798e-03 0.0000000000000000e+00  -9.9133017100850804e-03 1.8876931033602385e-03 0.0000000000000000e+00  -9.5059918851407455e-03 1.9635744082829405e-03 0.0000000000000000e+00  -8.6299363460430427e-03 2.0305038026789219e-03 0.0000000000000000e+00  -7.1638534159845398e-03 2.0871913530150998e-03 0.0000000000000000e+00  -4.9647731839868592e-03 2.1323585705194012e-03 0.0000000000000000e+00  -1.8646012487041389e-03 2.1647551700731018e-03 0.0000000000000000e+00  2.3339756031545656e-03 2.1831765463583138e-03 0.0000000000000000e+00  7.8624417595761879e-03 2.1864812522498635e-03 0.0000000000000000e+00  1.4992544803822979e-02 2.1736074252525213e-03 0.0000000000000000e+00  2.4043929054474538e-02 2.1435865916401143e-03 0.0000000000000000e+00  3.5393893520466936e-02 2.0955532640772544e-03 0.0000000000000000e+00  4.9490135614712105e-02 2.0287544924536276e-03 0.0000000000000000e+00  6.6867766271635001e-02 1.9425997515609579e-03 0.0000000000000000e+00  8.8172344483395559e-02 1.8369430835454934e-03 0.0000000000000000e+00  1.1418903749152838e-01 1.7131319798381855e-03 0.0000000000000000e+00  0.0000000000000000e+00 -3.6779752258622651e-06 0.0000000000000000e+00  1.8640531911541334e-05 4.9885548588150646e-06 0.0000000000000000e+00  2.9027143501174826e-05 2.9027143500950870e-05 0.0000000000000000e+00  2.4833619580502176e-05 6.8131614236857492e-05 0.0000000000000000e+00  -1.0880673450769644e-06 1.2223668418922243e-04 0.0000000000000000e+00  -5.5741646071841805e-05 1.9121260460872185e-04 0.0000000000000000e+00  -1.4584033297325666e-04 2.7483568647792514e-04 0.0000000000000000e+00  -2.7771238201958892e-04 3.7278440060262413e-04 0.0000000000000000e+00  -4.5720030009018518e-04 4.8464280545697979e-04 0.0000000000000000e+00  -6.8954089621387556e-04 6.0990265325226365e-04 0.0000000000000000e+00  -9.7922125207824669e-04 7.4796243129618932e-04 0.0000000000000000e+00  -1.3298063719128523e-03 8.9812398059658594e-04 0.0000000000000000e+00  -1.7437335948815786e-03 1.0595876144383677e-03 0.0000000000000000e+00  -2.2220680300503426e-03 1.2314464479305605e-03 0.0000000000000000e+00  -2.7642124717518375e-03 1.4126804439889549e-03 0.0000000000000000e+00  -3.3675644790149041e-03 1.6021505617201269e-03 0.0000000000000000e+00  -4.0271125478781658e-03 1.7985933392124405e-03 0.0000000000000000e+00  -4.7349625624050666e-03 2.0006162278192016e-03 0.0000000000000000e+00  -5.4797849686249352e-03 2.2066939986004207e-03 0.0000000000000000e+00  -6.2461723539629860e-03 2.4151665539556217e-03 0.0000000000000000e+00  -7.0138962914553411e-03 2.6242384904646876e-03 0.0000000000000000e+00  -7.7570513506451484e-03 2.8319807689835136e-03 0.0000000000000000e+00  -8.4430729702302566e-03 3.0363348509641537e-03 0.0000000000000000e+00  -9.0316142586566797e-03 3.2351196523178597e-03 0.0000000000000000e+00  -9.4732644906754260e-03 3.4260416448832778e-03 0.0000000000000000e+00  -9.7080887574505365e-03 3.6067083964851534e-03 0.0000000000000000e+00  -9.6639634367668929e-03 3.7746457802469427e-03 0.0000000000000000e+00  -9.2546752456249756e-03 3.9273189972996734e-03 0.0000000000000000e+00  -8.3777417634766180e-03 4.0621574407661617e-03 0.0000000000000000e+00  -6.9118972986019203e-03 4.1765832785547966e-03 0.0000000000000000e+00  -4.7141681829698636e-03 4.2680434453817905e-03 0.0000000000000000e+00  -1.6164336993932671e-03 4.3340445079455949e-03 0.0000000000000000e+00  2.5786705275315592e-03 4.3721895972896408e-03 0.0000000000000000e+00  8.1027058122121048e-03 4.3802162856636170e-03 0.0000000000000000e+00  1.5227519922408440e-02 4.3560339439778998e-03 0.0000000000000000e+00  2.4272869685539940e-02 4.2977588866327833e-03 0.0000000000000000e+00  3.5616147750427332e-02 4.2037457247952794e-03 0.0000000000000000e+00  4.9705048391926465e-02 4.0726120164245013e-03 0.0000000000000000e+00  6.7074409919622657e-02 3.9032308202631041e-03 0.0000000000000000e+00  8.8369053515094179e-02 3.6945028921487036e-03 0.0000000000000000e+00  1.1437530935838362e-01 3.4438175270363066e-03 0.0000000000000000e+00  0.0000000000000000e+00 -2.3025796996334073e-05 0.0000000000000000e+00  3.8165923640278544e-05 -1.0718404612476510e-05 0.0000000000000000e+00  6.8131614240562211e-05 2.4833619579054079e-05 0.0000000000000000e+00  8.3298603892654742e-05 8.3298603886089667e-05 0.0000000000000000e+00  7.6667242067160631e-05 1.6444068639239568e-04 0.0000000000000000e+00  4.1280236535587860e-05 2.6797691994290637e-04 0.0000000000000000e+00  -2.9566487325104601e-05 3.9352066218713289e-04 0.0000000000000000e+00  -1.4221095957975624e-04 5.4056870383625420e-04 0.0000000000000000e+00  -3.0251708581771549e-04 7.0849462007542986e-04 0.0000000000000000e+00  -5.1575186369981886e-04 8.9654257351659691e-04 0.0000000000000000e+00  -7.8644066451566928e-04 1.1038206210171057e-03 0.0000000000000000e+00  -1.1181950777826651e-03 1.3292932011945359e-03 0.0000000000000000e+00  -1.5135077877264749e-03 1.5717728162681413e-03 0.0000000000000000e+00  -1.9735084572722770e-03 1.8299111479236705e-03 0.0000000000000000e+00  -2.4976739444012731e-03 2.1021899618170027e-03 0.0000000000000000e+00  -3.0834854663704717e-03 2.3869122073017562e-03 0.0000000000000000e+00  -3.7260245977384543e-03 2.6821937455832252e-03 0.0000000000000000e+00  -4.4174992542353655e-03 2.9859561626825668e-03 0.0000000000000000e+00  -5.1466900754580406e-03 3.2959211472753805e-03 0.0000000000000000e+00  -5.8983068595389885e-03 3.6096069392761126e-03 0.0000000000000000e+00  -6.6522438821511390e-03 3.9243273776105383e-03 0.0000000000000000e+00  -7.3827219792671076e-03 4.2371940927146525e-03 0.0000000000000000e+00  -8.0573040732148798e-03 4.5451223949022068e-03 0.0000000000000000e+00  -8.6357692021806869e-03 4.8448414002094965e-03 0.0000000000000000e+00  -9.0688278280685146e-03 5.1329089047145917e-03 0.0000000000000000e+00  -9.2966579028505528e-03 5.4057314618229414e-03 0.0000000000000000e+00  -9.2472364021548206e-03 5.6595900283042512e-03 0.0000000000000000e+00  -8.8344341536127548e-03 5.8906714174927462e-03 0.0000000000000000e+00  -7.9558319408251348e-03 6.0951056254767745e-03 0.0000000000000000e+00  -6.4902018822095807e-03 6.2690088699275410e-03 0.0000000000000000e+00  -4.2945783438029135e-03 6.4085318931712595e-03 0.0000000000000000e+00  -1.2008148398682719e-03 6.5099127177751723e-03 0.0000000000000000e+00  2.9885158557823219e-03 6.5695325821140717e-03 0.0000000000000000e+00  8.5050768639877254e-03 6.5839731690542601e-03 0.0000000000000000e+00  1.5620856044613690e-02 6.5500723089005983e-03 0.0000000000000000e+00  2.4655783500517267e-02 6.4649734960227200e-03 0.0000000000000000e+00  3.5987445807907525e-02 6.3261595812528311e-03 0.0000000000000000e+00  5.0063726497303694e-02 6.1314449921339546e-03 0.0000000000000000e+00  6.7419597116470706e-02 5.8788502007891151e-03 0.0000000000000000e+00  8.8699853345390059e-02 5.5661474994401052e-03 0.0000000000000000e+00  1.1469039023373670e-01 5.1896351534805674e-03 0.0000000000000000e+00  0.0000000000000000e+00 -6.4237279168462803e-05 0.0000000000000000e+00  6.5114993616912056e-05 -4.8148214208846049e-05 0.0000000000000000e+00  1.2223668418895092e-04 -1.0880673455482396e-06 0.0000000000000000e+00  1.6444068639108242e-04 7.6667242064014723e-05 0.0000000000000000e+00  1.8477731954965804e-04 1.8477731954825557e-04 0.0000000000000000e+00  1.7632438782041822e-04 3.2282958311002376e-04 0.0000000000000000e+00  1.3238473153028666e-04 4.9028724327447755e-04 0.0000000000000000e+00  4.6609340985070814e-05 6.8647002113709956e-04 0.0000000000000000e+00  -8.6890255716327321e-05 9.1054271993932286e-04 0.0000000000000000e+00  -2.7341802831417955e-04 1.1615048493595738e-03 0.0000000000000000e+00  -5.1754860993142703e-04 1.4381796671152657e-03 0.0000000000000000e+00  -8.2295544408572761e-04 1.7392024319441506e-03 0.0000000000000000e+00  -1.1922061102601416e-03 2.0630080111763418e-03 0.0000000000000000e+00  -1.6265186355924144e-03 2.4078181040588604e-03 0.0000000000000000e+00  -2.1254719961788073e-03 2.7716284257600916e-03 0.0000000000000000e+00  -2.6866633305458864e-03 3.1521962752441108e-03 0.0000000000000000e+00  -3.3053036767985290e-03 3.5470289806100166e-03 0.0000000000000000e+00  -3.9737433221973652e-03 3.9533737791070953e-03 0.0000000000000000e+00  -4.6809171225140863e-03 4.3682097453270801e-03 0.0000000000000000e+00  -5.4116993947920999e-03 4.7882424314656166e-03 0.0000000000000000e+00  -6.1461571725677042e-03 5.2099019245116967e-03 0.0000000000000000e+00  -6.8586896678661351e-03 5.6293450554725667e-03 0.0000000000000000e+00  -7.5170405953313077e-03 6.0424625089767325e-03 0.0000000000000000e+00  -8.0811684089649640e-03 6.4448915734271871e-03 0.0000000000000000e+00  -8.5019572352490001e-03 6.8320352352170552e-03 0.0000000000000000e+00  -8.7197480151908723e-03 7.1990882483152540e-03 0.0000000000000000e+00  -8.6626646247365945e-03 7.5410706943894673e-03 0.0000000000000000e+00  -8.2447028956959822e-03 7.8528693795971733e-03 0.0000000000000000e+00  -7.3635406523611885e-03 8.1292871809290259e-03 0.0000000000000000e+00  -5.8980129437180943e-03 8.3651001448175801e-03 0.0000000000000000e+00  -3.7051769666965125e-03 8.5551217353057370e-03 0.0000000000000000e+00  -6.1686344378829251e-04 8.6942730996053992e-03 0.0000000000000000e+00  3.5644279053230472e-03 8.7776575095912350e-03 0.0000000000000000e+00  9.0704866766233901e-03 8.8006361143529045e-03 0.0000000000000000e+00  1.6173481356375061e-02 8.7589004551869160e-03 0.0000000000000000e+00  2.5193573357451177e-02 8.6485339403072643e-03 0.0000000000000000e+00  3.6508619485469268e-02 8.4660474647099086e-03 0.0000000000000000e+00  5.0566781470413422e-02 8.2083594160829616e-03 0.0000000000000000e+00  6.7903240450386010e-02 7.8726644256402051e-03 0.0000000000000000e+00  8.9162772771540000e-02 7.4561197649764934e-03 0.0000000000000000e+00  1.1513079298128745e-01 6.9554052048619126e-03 0.0000000000000000e+00  0.0000000000000000e+00 -1.3426090816404926e-04 0.0000000000000000e+00  9.9510517259646968e-05 -1.1433709791631061e-04 0.0000000000000000e+00  1.9121260461091842e-04 -5.5741646077450573e-05 0.0000000000000000e+00  2.6797691995122610e-04 4.1280236529979127e-05 0.0000000000000000e+00  3.2282958311333302e-04 1.7632438781815346e-04 0.0000000000000000e+00  3.4886754884370453e-04 3.4886754884396105e-04 0.0000000000000000e+00  3.3939650897728708e-04 5.5823624232123896e-04 0.0000000000000000e+00  2.8805323610221506e-04 8.0358494270914250e-04 0.0000000000000000e+00  1.8891972445441506e-04 1.0838808822732735e-03 0.0000000000000000e+00  3.6647499559953141e-05 1.3978900726278817e-03 0.0000000000000000e+00  -1.7339804739155182e-04 1.7441627293807332e-03 0.0000000000000000e+00  -4.4496659521861662e-04 2.1210177427868847e-03 0.0000000000000000e+00  -7.8071901361305028e-04 2.5265263360708433e-03 0.0000000000000000e+00  -1.1819843323162423e-03 2.9584952452775420e-03 0.0000000000000000e+00  -1.6484706658072903e-03 3.4144498556312355e-03 0.0000000000000000e+00  -2.1779225346484823e-03 3.8916178099128265e-03 0.0000000000000000e+00  -2.7657163179609905e-03 4.3869136830128799e-03 0.0000000000000000e+00  -3.4043848514469801e-03 4.8969253951327996e-03 0.0000000000000000e+00  -4.0830614569868640e-03 5.4179031128829443e-03 0.0000000000000000e+00  -4.7868329405124635e-03 5.9457514583205612e-03 0.0000000000000000e+00  -5.4959902872760225e-03 6.4760259066865694e-03 0.0000000000000000e+00  -6.1851648489112763e-03 7.0039343002460397e-03 0.0000000000000000e+00  -6.8223366417043850e-03 7.5243444308039208e-03 0.0000000000000000e+00  -7.3676997894215500e-03 8.0317986415468605e-03 0.0000000000000000e+00  -7.7723679019113204e-03 8.5205363608493422e-03 0.0000000000000000e+00  -7.9768989403744793e-03 8.9845253973937344e-03 0.0000000000000000e+00  -7.9096144149295080e-03 9.4175026871392217e-03 0.0000000000000000e+00  -7.4846809589096432e-03 9.8130249755786127e-03 0.0000000000000000e+00  -6.5999125710654513e-03 1.0164529628742673e-02 0.0000000000000000e+00  -5.1342379448636021e-03 1.0465405375150996e-02 0.0000000000000000e+00  -2.9447576935566397e-03 1.0709072262113121e-02 0.0000000000000000e+00  1.3671135969170798e-04 1.0889069423583643e-02 0.0000000000000000e+00  4.3077466465737705e-03 1.0999148330465957e-02 0.0000000000000000e+00  9.8002821709175340e-03 1.1033367883629523e-02 0.0000000000000000e+00  1.6886698864110851e-02 1.0986185718361042e-02 0.0000000000000000e+00  2.5887433732064674e-02 1.0852536878670591e-02 0.0000000000000000e+00  3.7180666868703999e-02 1.0627885934271086e-02 0.0000000000000000e+00  5.1214896280448341e-02 1.0308232224618219e-02 0.0000000000000000e+00  6.8525590689937022e-02 9.8900473289833899e-03 0.0000000000000000e+00  8.9757706272855925e-02 9.3701561529426700e-03 0.0000000000000000e+00  1.1569685965134958e-01 8.7457016388108894e-03 0.0000000000000000e+00  0.0000000000000000e+00 -2.3976132001822666e-04 0.0000000000000000e+00  1.4125303861822598e-04 -2.1598654263533601e-04 0.0000000000000000e+00  2.7483568648057992e-04 -1.4584033297572108e-04 0.0000000000000000e+00  3.9352066218482370e-04 -2.9566487329006872e-05 0.0000000000000000e+00  4.9028724326746179e-04 1.3238473152928952e-04 0.0000000000000000e+00  5.5823624231686518e-04 3.3939650897468797e-04 0.0000000000000000e+00  5.9067230221983779e-04 5.9067230222305538e-04 0.0000000000000000e+00  5.8121563388108548e-04 8.8521492697138111e-04 0.0000000000000000e+00  5.2391480619332217e-04 1.2218085313819573e-03 0.0000000000000000e+00  4.1337034344532967e-04 1.5990011976883126e-03 0.0000000000000000e+00  2.4487801257596162e-04 2.0150867640135600e-03 0.0000000000000000e+00  1.4598679086719202e-05 2.4680854899144801e-03 0.0000000000000000e+00  -2.8023897408609887e-04 2.9557236929122969e-03 0.0000000000000000e+00  -6.4109638044934994e-04 3.4754127210475895e-03 0.0000000000000000e+00  -1.0678366755787724e-03 4.0242277638045994e-03 0.0000000000000000e+00  -1.5583822840514368e-03 4.5988871083904688e-03 0.0000000000000000e+00  -2.1083101554740303e-03 5.1957325449364716e-03 0.0000000000000000e+00  -2.7103755779881479e-03 5.8107117192855136e-03 0.0000000000000000e+00  -3.3539547698762519e-03 6.4393633265562031e-03 0.0000000000000000e+00  -4.0243957031007192e-03 7.0768061285413205e-03 0.0000000000000000e+00  -4.7022658110203201e-03 7.7177328583238735e-03 0.0000000000000000e+00  -5.3624843083714905e-03 8.3564101405831908e-03 0.0000000000000000e+00  -5.9733256923997684e-03 8.9866855970583814e-03 0.0000000000000000e+00  -6.4952794303623218e-03 9.6020033161853067e-03 0.0000000000000000e+00  -6.8797486260798553e-03 1.0195428832730611e-02 0.0000000000000000e+00  -7.0675672559132648e-03 1.0759684676400476e-02 0.0000000000000000e+00  -6.9873109072093684e-03 1.1287197394734244e-02 0.0000000000000000e+00  -6.5533692090158019e-03 1.1770156719814739e-02 0.0000000000000000e+00  -5.6637384617046352e-03 1.2200587212584291e-02 0.0000000000000000e+00  -4.1974791824317291e-03 1.2570432260703614e-02 0.0000000000000000e+00  -2.0117637700370361e-03 1.2871649696819787e-02 0.0000000000000000e+00  1.0615880276228183e-03 1.3096317503650199e-02 0.0000000000000000e+00  5.2202269887404555e-03 1.3236747022610556e-02 0.0000000000000000e+00  1.0696241801033408e-02 1.3285599699144097e-02 0.0000000000000000e+00  1.7762250760418062e-02 1.3236001577165493e-02 0.0000000000000000e+00  2.6739006438116070e-02 1