<?xml version="1.0"?>
<VTKFile type="UnstructuredGrid"  version="0.1"  >
<UnstructuredGrid>
<Piece  NumberOfPoints="1681" NumberOfCells="3200">
<Points>
<DataArray  type="Float64"  NumberOfComponents="3"  format="ascii">0 0 0  0.5 0 0  1 0 0  1.5 0 0  2 0 0  2.5 0 0  3 0 0  3.5 0 0  4 0 0  4.5 0 0  5 0 0  5.5 0 0  6 0 0  6.5 0 0  7 0 0  7.5 0 0  8 0 0  8.5 0 0  9 0 0  9.5 0 0  10 0 0  10.5 0 0  11 0 0  11.5 0 0  12 0 0  12.5 0 0  13 0 0  13.5 0 0  14 0 0  14.5 0 0  15 0 0  15.5 0 0  16 0 0  16.5 0 0  17 0 0  17.5 0 0  18 0 0  18.5 0 0  19 0 0  19.5 0 0  20 0 0  0 0.5 0  0.5 0.5 0  1 0.5 0  1.5 0.5 0  2 0.5 0  2.5 0.5 0  3 0.5 0  3.5 0.5 0  4 0.5 0  4.5 0.5 0  5 0.5 0  5.5 0.5 0  6 0.5 0  6.5 0.5 0  7 0.5 0  7.5 0.5 0  8 0.5 0  8.5 0.5 0  9 0.5 0  9.5 0.5 0  10 0.5 0  10.5 0.5 0  11 0.5 0  11.5 0.5 0  12 0.5 0  12.5 0.5 0  13 0.5 0  13.5 0.5 0  14 0.5 0  14.5 0.5 0  15 0.5 0  15.5 0.5 0  16 0.5 0  16.5 0.5 0  17 0.5 0  17.5 0.5 0  18 0.5 0  18.5 0.5 0  19 0.5 0  19.5 0.5 0  20 0.5 0  0 1 0  0.5 1 0  1 1 0  1.5 1 0  2 1 0  2.5 1 0  3 1 0  3.5 1 0  4 1 0  4.5 1 0  5 1 0  5.5 1 0  6 1 0  6.5 1 0  7 1 0  7.5 1 0  8 1 0  8.5 1 0  9 1 0  9.5 1 0  10 1 0  10.5 1 0  11 1 0  11.5 1 0  12 1 0  12.5 1 0  13 1 0  13.5 1 0  14 1 0  14.5 1 0  15 1 0  15.5 1 0  16 1 0  16.5 1 0  17 1 0  17.5 1 0  18 1 0  18.5 1 0  19 1 0  19.5 1 0  20 1 0  0 1.5 0  0.5 1.5 0  1 1.5 0  1.5 1.5 0  2 1.5 0  2.5 1.5 0  3 1.5 0  3.5 1.5 0  4 1.5 0  4.5 1.5 0  5 1.5 0  5.5 1.5 0  6 1.5 0  6.5 1.5 0  7 1.5 0  7.5 1.5 0  8 1.5 0  8.5 1.5 0  9 1.5 0  9.5 1.5 0  10 1.5 0  10.5 1.5 0  11 1.5 0  11.5 1.5 0  12 1.5 0  12.5 1.5 0  13 1.5 0  13.5 1.5 0  14 1.5 0  14.5 1.5 0  15 1.5 0  15.5 1.5 0  16 1.5 0  16.5 1.5 0  17 1.5 0  17.5 1.5 0  18 1.5 0  18.5 1.5 0  19 1.5 0  19.5 1.5 0  20 1.5 0  0 2 0  0.5 2 0  1 2 0  1.5 2 0  2 2 0  2.5 2 0  3 2 0  3.5 2 0  4 2 0  4.5 2 0  5 2 0  5.5 2 0  6 2 0  6.5 2 0  7 2 0  7.5 2 0  8 2 0  8.5 2 0  9 2 0  9.5 2 0  10 2 0  10.5 2 0  11 2 0  11.5 2 0  12 2 0  12.5 2 0  13 2 0  13.5 2 0  14 2 0  14.5 2 0  15 2 0  15.5 2 0  16 2 0  16.5 2 0  17 2 0  17.5 2 0  18 2 0  18.5 2 0  19 2 0  19.5 2 0  20 2 0  0 2.5 0  0.5 2.5 0  1 2.5 0  1.5 2.5 0  2 2.5 0  2.5 2.5 0  3 2.5 0  3.5 2.5 0  4 2.5 0  4.5 2.5 0  5 2.5 0  5.5 2.5 0  6 2.5 0  6.5 2.5 0  7 2.5 0  7.5 2.5 0  8 2.5 0  8.5 2.5 0  9 2.5 0  9.5 2.5 0  10 2.5 0  10.5 2.5 0  11 2.5 0  11.5 2.5 0  12 2.5 0  12.5 2.5 0  13 2.5 0  13.5 2.5 0  14 2.5 0  14.5 2.5 0  15 2.5 0  15.5 2.5 0  16 2.5 0  16.5 2.5 0  17 2.5 0  17.5 2.5 0  18 2.5 0  18.5 2.5 0  19 2.5 0  19.5 2.5 0  20 2.5 0  0 3 0  0.5 3 0  1 3 0  1.5 3 0  2 3 0  2.5 3 0  3 3 0  3.5 3 0  4 3 0  4.5 3 0  5 3 0  5.5 3 0  6 3 0  6.5 3 0  7 3 0  7.5 3 0  8 3 0  8.5 3 0  9 3 0  9.5 3 0  10 3 0  10.5 3 0  11 3 0  11.5 3 0  12 3 0  12.5 3 0  13 3 0  13.5 3 0  14 3 0  14.5 3 0  15 3 0  15.5 3 0  16 3 0  16.5 3 0  17 3 0  17.5 3 0  18 3 0  18.5 3 0  19 3 0  19.5 3 0  20 3 0  0 3.5 0  0.5 3.5 0  1 3.5 0  1.5 3.5 0  2 3.5 0  2.5 3.5 0  3 3.5 0  3.5 3.5 0  4 3.5 0  4.5 3.5 0  5 3.5 0  5.5 3.5 0  6 3.5 0  6.5 3.5 0  7 3.5 0  7.5 3.5 0  8 3.5 0  8.5 3.5 0  9 3.5 0  9.5 3.5 0  10 3.5 0  10.5 3.5 0  11 3.5 0  11.5 3.5 0  12 3.5 0  12.5 3.5 0  13 3.5 0  13.5 3.5 0  14 3.5 0  14.5 3.5 0  15 3.5 0  15.5 3.5 0  16 3.5 0  16.5 3.5 0  17 3.5 0  17.5 3.5 0  18 3.5 0  18.5 3.5 0  19 3.5 0  19.5 3.5 0  20 3.5 0  0 4 0  0.5 4 0  1 4 0  1.5 4 0  2 4 0  2.5 4 0  3 4 0  3.5 4 0  4 4 0  4.5 4 0  5 4 0  5.5 4 0  6 4 0  6.5 4 0  7 4 0  7.5 4 0  8 4 0  8.5 4 0  9 4 0  9.5 4 0  10 4 0  10.5 4 0  11 4 0  11.5 4 0  12 4 0  12.5 4 0  13 4 0  13.5 4 0  14 4 0  14.5 4 0  15 4 0  15.5 4 0  16 4 0  16.5 4 0  17 4 0  17.5 4 0  18 4 0  18.5 4 0  19 4 0  19.5 4 0  20 4 0  0 4.5 0  0.5 4.5 0  1 4.5 0  1.5 4.5 0  2 4.5 0  2.5 4.5 0  3 4.5 0  3.5 4.5 0  4 4.5 0  4.5 4.5 0  5 4.5 0  5.5 4.5 0  6 4.5 0  6.5 4.5 0  7 4.5 0  7.5 4.5 0  8 4.5 0  8.5 4.5 0  9 4.5 0  9.5 4.5 0  10 4.5 0  10.5 4.5 0  11 4.5 0  11.5 4.5 0  12 4.5 0  12.5 4.5 0  13 4.5 0  13.5 4.5 0  14 4.5 0  14.5 4.5 0  15 4.5 0  15.5 4.5 0  16 4.5 0  16.5 4.5 0  17 4.5 0  17.5 4.5 0  18 4.5 0  18.5 4.5 0  19 4.5 0  19.5 4.5 0  20 4.5 0  0 5 0  0.5 5 0  1 5 0  1.5 5 0  2 5 0  2.5 5 0  3 5 0  3.5 5 0  4 5 0  4.5 5 0  5 5 0  5.5 5 0  6 5 0  6.5 5 0  7 5 0  7.5 5 0  8 5 0  8.5 5 0  9 5 0  9.5 5 0  10 5 0  10.5 5 0  11 5 0  11.5 5 0  12 5 0  12.5 5 0  13 5 0  13.5 5 0  14 5 0  14.5 5 0  15 5 0  15.5 5 0  16 5 0  16.5 5 0  17 5 0  17.5 5 0  18 5 0  18.5 5 0  19 5 0  19.5 5 0  20 5 0  0 5.5 0  0.5 5.5 0  1 5.5 0  1.5 5.5 0  2 5.5 0  2.5 5.5 0  3 5.5 0  3.5 5.5 0  4 5.5 0  4.5 5.5 0  5 5.5 0  5.5 5.5 0  6 5.5 0  6.5 5.5 0  7 5.5 0  7.5 5.5 0  8 5.5 0  8.5 5.5 0  9 5.5 0  9.5 5.5 0  10 5.5 0  10.5 5.5 0  11 5.5 0  11.5 5.5 0  12 5.5 0  12.5 5.5 0  13 5.5 0  13.5 5.5 0  14 5.5 0  14.5 5.5 0  15 5.5 0  15.5 5.5 0  16 5.5 0  16.5 5.5 0  17 5.5 0  17.5 5.5 0  18 5.5 0  18.5 5.5 0  19 5.5 0  19.5 5.5 0  20 5.5 0  0 6 0  0.5 6 0  1 6 0  1.5 6 0  2 6 0  2.5 6 0  3 6 0  3.5 6 0  4 6 0  4.5 6 0  5 6 0  5.5 6 0  6 6 0  6.5 6 0  7 6 0  7.5 6 0  8 6 0  8.5 6 0  9 6 0  9.5 6 0  10 6 0  10.5 6 0  11 6 0  11.5 6 0  12 6 0  12.5 6 0  13 6 0  13.5 6 0  14 6 0  14.5 6 0  15 6 0  15.5 6 0  16 6 0  16.5 6 0  17 6 0  17.5 6 0  18 6 0  18.5 6 0  19 6 0  19.5 6 0  20 6 0  0 6.5 0  0.5 6.5 0  1 6.5 0  1.5 6.5 0  2 6.5 0  2.5 6.5 0  3 6.5 0  3.5 6.5 0  4 6.5 0  4.5 6.5 0  5 6.5 0  5.5 6.5 0  6 6.5 0  6.5 6.5 0  7 6.5 0  7.5 6.5 0  8 6.5 0  8.5 6.5 0  9 6.5 0  9.5 6.5 0  10 6.5 0  10.5 6.5 0  11 6.5 0  11.5 6.5 0  12 6.5 0  12.5 6.5 0  13 6.5 0  13.5 6.5 0  14 6.5 0  14.5 6.5 0  15 6.5 0  15.5 6.5 0  16 6.5 0  16.5 6.5 0  17 6.5 0  17.5 6.5 0  18 6.5 0  18.5 6.5 0  19 6.5 0  19.5 6.5 0  20 6.5 0  0 7 0  0.5 7 0  1 7 0  1.5 7 0  2 7 0  2.5 7 0  3 7 0  3.5 7 0  4 7 0  4.5 7 0  5 7 0  5.5 7 0  6 7 0  6.5 7 0  7 7 0  7.5 7 0  8 7 0  8.5 7 0  9 7 0  9.5 7 0  10 7 0  10.5 7 0  11 7 0  11.5 7 0  12 7 0  12.5 7 0  13 7 0  13.5 7 0  14 7 0  14.5 7 0  15 7 0  15.5 7 0  16 7 0  16.5 7 0  17 7 0  17.5 7 0  18 7 0  18.5 7 0  19 7 0  19.5 7 0  20 7 0  0 7.5 0  0.5 7.5 0  1 7.5 0  1.5 7.5 0  2 7.5 0  2.5 7.5 0  3 7.5 0  3.5 7.5 0  4 7.5 0  4.5 7.5 0  5 7.5 0  5.5 7.5 0  6 7.5 0  6.5 7.5 0  7 7.5 0  7.5 7.5 0  8 7.5 0  8.5 7.5 0  9 7.5 0  9.5 7.5 0  10 7.5 0  10.5 7.5 0  11 7.5 0  11.5 7.5 0  12 7.5 0  12.5 7.5 0  13 7.5 0  13.5 7.5 0  14 7.5 0  14.5 7.5 0  15 7.5 0  15.5 7.5 0  16 7.5 0  16.5 7.5 0  17 7.5 0  17.5 7.5 0  18 7.5 0  18.5 7.5 0  19 7.5 0  19.5 7.5 0  20 7.5 0  0 8 0  0.5 8 0  1 8 0  1.5 8 0  2 8 0  2.5 8 0  3 8 0  3.5 8 0  4 8 0  4.5 8 0  5 8 0  5.5 8 0  6 8 0  6.5 8 0  7 8 0  7.5 8 0  8 8 0  8.5 8 0  9 8 0  9.5 8 0  10 8 0  10.5 8 0  11 8 0  11.5 8 0  12 8 0  12.5 8 0  13 8 0  13.5 8 0  14 8 0  14.5 8 0  15 8 0  15.5 8 0  16 8 0  16.5 8 0  17 8 0  17.5 8 0  18 8 0  18.5 8 0  19 8 0  19.5 8 0  20 8 0  0 8.5 0  0.5 8.5 0  1 8.5 0  1.5 8.5 0  2 8.5 0  2.5 8.5 0  3 8.5 0  3.5 8.5 0  4 8.5 0  4.5 8.5 0  5 8.5 0  5.5 8.5 0  6 8.5 0  6.5 8.5 0  7 8.5 0  7.5 8.5 0  8 8.5 0  8.5 8.5 0  9 8.5 0  9.5 8.5 0  10 8.5 0  10.5 8.5 0  11 8.5 0  11.5 8.5 0  12 8.5 0  12.5 8.5 0  13 8.5 0  13.5 8.5 0  14 8.5 0  14.5 8.5 0  15 8.5 0  15.5 8.5 0  16 8.5 0  16.5 8.5 0  17 8.5 0  17.5 8.5 0  18 8.5 0  18.5 8.5 0  19 8.5 0  19.5 8.5 0  20 8.5 0  0 9 0  0.5 9 0  1 9 0  1.5 9 0  2 9 0  2.5 9 0  3 9 0  3.5 9 0  4 9 0  4.5 9 0  5 9 0  5.5 9 0  6 9 0  6.5 9 0  7 9 0  7.5 9 0  8 9 0  8.5 9 0  9 9 0  9.5 9 0  10 9 0  10.5 9 0  11 9 0  11.5 9 0  12 9 0  12.5 9 0  13 9 0  13.5 9 0  14 9 0  14.5 9 0  15 9 0  15.5 9 0  16 9 0  16.5 9 0  17 9 0  17.5 9 0  18 9 0  18.5 9 0  19 9 0  19.5 9 0  20 9 0  0 9.5 0  0.5 9.5 0  1 9.5 0  1.5 9.5 0  2 9.5 0  2.5 9.5 0  3 9.5 0  3.5 9.5 0  4 9.5 0  4.5 9.5 0  5 9.5 0  5.5 9.5 0  6 9.5 0  6.5 9.5 0  7 9.5 0  7.5 9.5 0  8 9.5 0  8.5 9.5 0  9 9.5 0  9.5 9.5 0  10 9.5 0  10.5 9.5 0  11 9.5 0  11.5 9.5 0  12 9.5 0  12.5 9.5 0  13 9.5 0  13.5 9.5 0  14 9.5 0  14.5 9.5 0  15 9.5 0  15.5 9.5 0  16 9.5 0  16.5 9.5 0  17 9.5 0  17.5 9.5 0  18 9.5 0  18.5 9.5 0  19 9.5 0  19.5 9.5 0  20 9.5 0  0 10 0  0.5 10 0  1 10 0  1.5 10 0  2 10 0  2.5 10 0  3 10 0  3.5 10 0  4 10 0  4.5 10 0  5 10 0  5.5 10 0  6 10 0  6.5 10 0  7 10 0  7.5 10 0  8 10 0  8.5 10 0  9 10 0  9.5 10 0  10 10 0  10.5 10 0  11 10 0  11.5 10 0  12 10 0  12.5 10 0  13 10 0  13.5 10 0  14 10 0  14.5 10 0  15 10 0  15.5 10 0  16 10 0  16.5 10 0  17 10 0  17.5 10 0  18 10 0  18.5 10 0  19 10 0  19.5 10 0  20 10 0  0 10.5 0  0.5 10.5 0  1 10.5 0  1.5 10.5 0  2 10.5 0  2.5 10.5 0  3 10.5 0  3.5 10.5 0  4 10.5 0  4.5 10.5 0  5 10.5 0  5.5 10.5 0  6 10.5 0  6.5 10.5 0  7 10.5 0  7.5 10.5 0  8 10.5 0  8.5 10.5 0  9 10.5 0  9.5 10.5 0  10 10.5 0  10.5 10.5 0  11 10.5 0  11.5 10.5 0  12 10.5 0  12.5 10.5 0  13 10.5 0  13.5 10.5 0  14 10.5 0  14.5 10.5 0  15 10.5 0  15.5 10.5 0  16 10.5 0  16.5 10.5 0  17 10.5 0  17.5 10.5 0  18 10.5 0  18.5 10.5 0  19 10.5 0  19.5 10.5 0  20 10.5 0  0 11 0  0.5 11 0  1 11 0  1.5 11 0  2 11 0  2.5 11 0  3 11 0  3.5 11 0  4 11 0  4.5 11 0  5 11 0  5.5 11 0  6 11 0  6.5 11 0  7 11 0  7.5 11 0  8 11 0  8.5 11 0  9 11 0  9.5 11 0  10 11 0  10.5 11 0  11 11 0  11.5 11 0  12 11 0  12.5 11 0  13 11 0  13.5 11 0  14 11 0  14.5 11 0  15 11 0  15.5 11 0  16 11 0  16.5 11 0  17 11 0  17.5 11 0  18 11 0  18.5 11 0  19 11 0  19.5 11 0  20 11 0  0 11.5 0  0.5 11.5 0  1 11.5 0  1.5 11.5 0  2 11.5 0  2.5 11.5 0  3 11.5 0  3.5 11.5 0  4 11.5 0  4.5 11.5 0  5 11.5 0  5.5 11.5 0  6 11.5 0  6.5 11.5 0  7 11.5 0  7.5 11.5 0  8 11.5 0  8.5 11.5 0  9 11.5 0  9.5 11.5 0  10 11.5 0  10.5 11.5 0  11 11.5 0  11.5 11.5 0  12 11.5 0  12.5 11.5 0  13 11.5 0  13.5 11.5 0  14 11.5 0  14.5 11.5 0  15 11.5 0  15.5 11.5 0  16 11.5 0  16.5 11.5 0  17 11.5 0  17.5 11.5 0  18 11.5 0  18.5 11.5 0  19 11.5 0  19.5 11.5 0  20 11.5 0  0 12 0  0.5 12 0  1 12 0  1.5 12 0  2 12 0  2.5 12 0  3 12 0  3.5 12 0  4 12 0  4.5 12 0  5 12 0  5.5 12 0  6 12 0  6.5 12 0  7 12 0  7.5 12 0  8 12 0  8.5 12 0  9 12 0  9.5 12 0  10 12 0  10.5 12 0  11 12 0  11.5 12 0  12 12 0  12.5 12 0  13 12 0  13.5 12 0  14 12 0  14.5 12 0  
[...]
<PointData  Vectors="f_2975-0"> 
<DataArray  type="Float64"  Name="f_2975-0"  NumberOfComponents="3" format="ascii">0.0000000000000000e+00 0.0000000000000000e+00 0.0000000000000000e+00  -1.2130789543062151e-06 0.0000000000000000e+00 0.0000000000000000e+00  -5.6716968501963410e-06 0.0000000000000000e+00 0.0000000000000000e+00  -1.8096947598972506e-05 0.0000000000000000e+00 0.0000000000000000e+00  -4.2462531243335788e-05 0.0000000000000000e+00 0.0000000000000000e+00  -8.2630310678488009e-05 0.0000000000000000e+00 0.0000000000000000e+00  -1.4237111441799507e-04 0.0000000000000000e+00 0.0000000000000000e+00  -2.2533599486716376e-04 0.0000000000000000e+00 0.0000000000000000e+00  -3.3502081436100376e-04 0.0000000000000000e+00 0.0000000000000000e+00  -4.7472487199504387e-04 0.0000000000000000e+00 0.0000000000000000e+00  -6.4750132338041585e-04 0.0000000000000000e+00 0.0000000000000000e+00  -8.5609674239106809e-04 0.0000000000000000e+00 0.0000000000000000e+00  -1.1028766278845690e-03 0.0000000000000000e+00 0.0000000000000000e+00  -1.3897328845126884e-03 0.0000000000000000e+00 0.0000000000000000e+00  -1.7179683304711971e-03 0.0000000000000000e+00 0.0000000000000000e+00  -2.0881521065018245e-03 0.0000000000000000e+00 0.0000000000000000e+00  -2.4999384712126893e-03 0.0000000000000000e+00 0.0000000000000000e+00  -2.9518398655711928e-03 0.0000000000000000e+00 0.0000000000000000e+00  -3.4409433245159841e-03 0.0000000000000000e+00 0.0000000000000000e+00  -3.9625573306343665e-03 0.0000000000000000e+00 0.0000000000000000e+00  -4.5097740876667595e-03 0.0000000000000000e+00 0.0000000000000000e+00  -5.0729299984294497e-03 0.0000000000000000e+00 0.0000000000000000e+00  -5.6389449328802278e-03 0.0000000000000000e+00 0.0000000000000000e+00  -6.1905187358914449e-03 0.0000000000000000e+00 0.0000000000000000e+00  -6.7051613963557090e-03 0.0000000000000000e+00 0.0000000000000000e+00  -7.1540313735001370e-03 0.0000000000000000e+00 0.0000000000000000e+00  -7.5005546506180911e-03 0.0000000000000000e+00 0.0000000000000000e+00  -7.6987949118895839e-03 0.0000000000000000e+00 0.0000000000000000e+00  -7.6915423513722308e-03 0.0000000000000000e+00 0.0000000000000000e+00  -7.4080842739836367e-03 0.0000000000000000e+00 0.0000000000000000e+00  -6.7616137037426064e-03 0.0000000000000000e+00 0.0000000000000000e+00  -5.6462210401986958e-03 0.0000000000000000e+00 0.0000000000000000e+00  -3.9333960829037581e-03 0.0000000000000000e+00 0.0000000000000000e+00  -1.4679401669520954e-03 0.0000000000000000e+00 0.0000000000000000e+00  1.9368541713896052e-03 0.0000000000000000e+00 0.0000000000000000e+00  6.5049634139346443e-03 0.0000000000000000e+00 0.0000000000000000e+00  1.2504641986411540e-02 0.0000000000000000e+00 0.0000000000000000e+00  2.0257159274811448e-02 0.0000000000000000e+00 0.0000000000000000e+00  3.0148095895333137e-02 0.0000000000000000e+00 0.0000000000000000e+00  4.2643135433076976e-02 0.0000000000000000e+00 0.0000000000000000e+00  5.8314994119871275e-02 0.0000000000000000e+00 0.0000000000000000e+00  0.0000000000000000e+00 -1.2130789590042048e-06 0.0000000000000000e+00  1.4802157932323808e-06 1.4802157902911607e-06 0.0000000000000000e+00  -1.1815667140325233e-06 7.8743475811089427e-06 0.0000000000000000e+00  -1.1702612684554967e-05 1.8019362358934347e-05 0.0000000000000000e+00  -3.4095601641396342e-05 3.2031258058364268e-05 0.0000000000000000e+00  -7.2265626609321125e-05 4.9916405672859340e-05 0.0000000000000000e+00  -1.3000159370154507e-04 7.1619305612232955e-05 0.0000000000000000e+00  -2.1096282614967732e-04 9.7049633530027116e-05 0.0000000000000000e+00  -3.1865043474365792e-04 1.2609125477699873e-04 0.0000000000000000e+00  -4.5636839324269456e-04 1.5860419153267393e-04 0.0000000000000000e+00  -6.2717489299402311e-04 1.9442415440710218e-04 0.0000000000000000e+00  -8.3382231031564797e-04 2.3336122419601282e-04 0.0000000000000000e+00  -1.0786829119697348e-03 2.7519822742069257e-04 0.0000000000000000e+00  -1.3636564363310420e-03 3.1968902151634183e-04 0.0000000000000000e+00  -1.6900546414818573e-03 3.6655680779210917e-04 0.0000000000000000e+00  -2.0584567073900772e-03 4.1549256394110329e-04 0.0000000000000000e+00  -2.4685279799387771e-03 4.6615368446130428e-04 0.0000000000000000e+00  -2.9187929381151159e-03 5.1816292181606799e-04 0.0000000000000000e+00  -3.4063514585726449e-03 5.7110772740558960e-04 0.0000000000000000e+00  -3.9265254684841397e-03 6.2454009739151351e-04 0.0000000000000000e+00  -4.4724209603415263e-03 6.7797703239959512e-04 0.0000000000000000e+00  -5.0343881499950779e-03 7.3090172049365448e-04 0.0000000000000000e+00  -5.5993603616883367e-03 7.8276554901358778e-04 0.0000000000000000e+00  -6.1500500887107686e-03 8.3299104068553756e-04 0.0000000000000000e+00  -6.6639786516686306e-03 8.8097579164682089e-04 0.0000000000000000e+00  -7.1123139509776893e-03 9.2609746293919823e-04 0.0000000000000000e+00  -7.4584888834659082e-03 9.6771984021075429e-04 0.0000000000000000e+00  -7.6565708140791423e-03 1.0051999288117955e-03 0.0000000000000000e+00  -7.6493495980179517e-03 1.0378959925545349e-03 0.0000000000000000e+00  -7.3661072827905481e-03 1.0651763754674483e-03 0.0000000000000000e+00  -6.7200256492719636e-03 1.0864288700993955e-03 0.0000000000000000e+00  -5.6051765446329055e-03 1.1010703191965451e-03 0.0000000000000000e+00  -3.8930222186557787e-03 1.1085560651009031e-03 0.0000000000000000e+00  -1.4283253564587096e-03 1.1083887890229614e-03 0.0000000000000000e+00  1.9756734617923169e-03 1.1001261763250224e-03 0.0000000000000000e+00  6.5430165065378434e-03 1.0833866236834781e-03 0.0000000000000000e+00  1.2542029055280821e-02 1.0578518585509485e-03 0.0000000000000000e+00  2.0294005079470052e-02 1.0232656778477128e-03 0.0000000000000000e+00  3.0184241091840449e-02 9.7943311799771624e-04 0.0000000000000000e+00  4.2676321741857592e-02 9.2624335277627964e-04 0.0000000000000000e+00  5.8329846892837899e-02 8.6370811372178278e-04 0.0000000000000000e+00  0.0000000000000000e+00 -5.6716968581046480e-06 0.0000000000000000e+00  7.8743475824520998e-06 -1.1815667147975010e-06 0.0000000000000000e+00  1.1297403210383256e-05 1.1297403211659676e-05 0.0000000000000000e+00  6.7710964118997379e-06 3.1618353568378264e-05 0.0000000000000000e+00  -9.6303848298573465e-06 5.9745532113232584e-05 0.0000000000000000e+00  -4.1796699143764086e-05 9.5606760577625802e-05 0.0000000000000000e+00  -9.3523059366703765e-05 1.3907994726489067e-04 0.0000000000000000e+00  -1.6847921462886093e-04 1.8999138225821830e-04 0.0000000000000000e+00  -2.7017761054477259e-04 2.4811728676079833e-04 0.0000000000000000e+00  -4.0193466266197694e-04 3.1318453945891248e-04 0.0000000000000000e+00  -5.6682279762529798e-04 3.8486981459554871e-04 0.0000000000000000e+00  -7.6761100121462949e-04 4.6279750048885428e-04 0.0000000000000000e+00  -1.0066909270882922e-03 5.4653688939554639e-04 0.0000000000000000e+00  -1.2859847258576028e-03 6.3559902023220440e-04 0.0000000000000000e+00  -1.6068297092263174e-03 7.2943345582075292e-04 0.0000000000000000e+00  -1.9698337472446839e-03 8.2742522119961148e-04 0.0000000000000000e+00  -2.3746938871220804e-03 9.2889210768210028e-04 0.0000000000000000e+00  -2.8199690693369059e-03 1.0330825445693591e-03 0.0000000000000000e+00  -3.3027960068300883e-03 1.1391742459786699e-03 0.0000000000000000e+00  -3.8185353092358445e-03 1.2462738483616906e-03 0.0000000000000000e+00  -4.3603328182602024e-03 1.3534177603230328e-03 0.0000000000000000e+00  -4.9185789313159903e-03 1.4595744470205915e-03 0.0000000000000000e+00  -5.4802464973122246e-03 1.5636483645976240e-03 0.0000000000000000e+00  -6.0280857395957647e-03 1.6644857414504486e-03 0.0000000000000000e+00  -6.5396526410437909e-03 1.7608823718176048e-03 0.0000000000000000e+00  -6.9861453085111273e-03 1.8515935390160650e-03 0.0000000000000000e+00  -7.3310209140214407e-03 1.9353461199207340e-03 0.0000000000000000e+00  -7.5283636372202372e-03 2.0108528359783048e-03 0.0000000000000000e+00  -7.5209711417386005e-03 2.0768285106057176e-03 0.0000000000000000e+00  -7.2381227540496322e-03 2.1320080679018121e-03 0.0000000000000000e+00  -6.5929855459563314e-03 2.1751658670517938e-03 0.0000000000000000e+00  -5.4796033316018298e-03 2.2051358131324017e-03 0.0000000000000000e+00  -3.7693959122752866e-03 2.2208315151864646e-03 0.0000000000000000e+00  -1.3070685833335397e-03 2.2212655541025261e-03 0.0000000000000000e+00  2.0942094891048747e-03 2.2055666018466666e-03 0.0000000000000000e+00  6.6585613277991710e-03 2.1729924933000782e-03 0.0000000000000000e+00  1.2654387855372555e-02 2.1229357059551323e-03 0.0000000000000000e+00  2.0403014338028522e-02 2.0549121342710560e-03 0.0000000000000000e+00  3.0289625822776025e-02 1.9685010999384916e-03 0.0000000000000000e+00  4.2777378658291773e-02 1.8631060280136810e-03 0.0000000000000000e+00  5.8425865708743953e-02 1.7369941116067381e-03 0.0000000000000000e+00  0.0000000000000000e+00 -1.8096947608977744e-05 0.0000000000000000e+00  1.8019362363805237e-05 -1.1702612684466957e-05 0.0000000000000000e+00  3.1618353572926194e-05 6.7710964093339955e-06 0.0000000000000000e+00  3.7161594518544568e-05 3.7161594509670401e-05 0.0000000000000000e+00  3.0795077884380625e-05 7.9346622091407137e-05 0.0000000000000000e+00  8.6510273473003215e-06 1.3317497942137222e-04 0.0000000000000000e+00  -3.3062273819415285e-05 1.9843920949748443e-04 0.0000000000000000e+00  -9.8020680969811396e-05 2.7486932504783935e-04 0.0000000000000000e+00  -1.8974890776998597e-04 3.6212926665790359e-04 0.0000000000000000e+00  -3.1158050113219747e-04 4.5981339515900128e-04 0.0000000000000000e+00  -4.6660961050823082e-04 5.6744263899805275e-04 0.0000000000000000e+00  -6.5763167643284788e-04 6.8446019527586526e-04 0.0000000000000000e+00  -8.8706978864799802e-04 8.1022683940776567e-04 0.0000000000000000e+00  -1.1568827301240070e-03 9.4401600834133717e-04 0.0000000000000000e+00  -1.4684497515368737e-03 1.0850088818191521e-03 0.0000000000000000e+00  -1.8224259353346592e-03 1.2322897170932293e-03 0.0000000000000000e+00  -2.2185606111431886e-03 1.3848417118461664e-03 0.0000000000000000e+00  -2.6554696761517007e-03 1.5415436874562402e-03 0.0000000000000000e+00  -3.1303508663964889e-03 1.7011679017233401e-03 0.0000000000000000e+00  -3.6386290436104178e-03 1.8623793157081330e-03 0.0000000000000000e+00  -4.1735164504557234e-03 2.0237366500973999e-03 0.0000000000000000e+00  -4.7254707035797603e-03 2.1836955697218997e-03 0.0000000000000000e+00  -5.2815311090751126e-03 2.3406143261055054e-03 0.0000000000000000e+00  -5.8245117657409699e-03 2.4927621639478587e-03 0.0000000000000000e+00  -6.3320279142180299e-03 2.6383307535537276e-03 0.0000000000000000e+00  -6.7753300854982434e-03 2.7754488442348533e-03 0.0000000000000000e+00  -7.1179186973592606e-03 2.9022002395308211e-03 0.0000000000000000e+00  -7.3139095884723710e-03 3.0166450703310280e-03 0.0000000000000000e+00  -7.3061181019009108e-03 3.1168441853466830e-03 0.0000000000000000e+00  -7.0238249783520293e-03 3.2008862863641893e-03 0.0000000000000000e+00  -6.3801803673478145e-03 3.2669172071857124e-03 0.0000000000000000e+00  -5.2691911028588017e-03 3.3131704614304384e-03 0.0000000000000000e+00  -3.5622187801017603e-03 3.3379978425871026e-03 0.0000000000000000e+00  -1.1038890152228467e-03 3.3398983799985448e-03 0.0000000000000000e+00  2.2927287662743356e-03 3.3175431451251220e-03 0.0000000000000000e+00  6.8518727805677269e-03 3.2697917313468041e-03 0.0000000000000000e+00  1.2842063512894063e-02 3.1956922008085464e-03 0.0000000000000000e+00  2.0584725250818621e-02 3.0944458064201849e-03 0.0000000000000000e+00  3.0465065932456500e-02 2.9652912388462567e-03 0.0000000000000000e+00  4.2946073566909097e-02 2.8072075126318969e-03 0.0000000000000000e+00  5.8586773180322974e-02 2.6182829656926656e-03 0.0000000000000000e+00  0.0000000000000000e+00 -4.2462531252398282e-05 0.0000000000000000e+00  3.2031258053689310e-05 -3.4095601646018573e-05 0.0000000000000000e+00  5.9745532114569493e-05 -9.6303848310368382e-06 0.0000000000000000e+00  7.9346622090595639e-05 3.0795077878517938e-05 0.0000000000000000e+00  8.7004305694253042e-05 8.7004305697547106e-05 0.0000000000000000e+00  7.8867098585098569e-05 1.5877872088983745e-04 0.0000000000000000e+00  5.1145425413845209e-05 2.4583215306877703e-04 0.0000000000000000e+00  1.5630671538393989e-07 3.4780115955829671e-04 0.0000000000000000e+00  -7.7639403904325235e-05 4.6423894289501772e-04 0.0000000000000000e+00  -1.8559653851990906e-04 5.9460960146652260e-04 0.0000000000000000e+00  -3.2683741826692138e-04 7.3828198024420734e-04 0.0000000000000000e+00  -5.0419275245794295e-04 8.9452308080382363e-04 0.0000000000000000e+00  -7.2012824888109098e-04 1.0624911575178786e-03 0.0000000000000000e+00  -9.7665286416382443e-04 1.2412286868632933e-03 0.0000000000000000e+00  -1.2752036722670594e-03 1.4296554435591202e-03 0.0000000000000000e+00  -1.6165011570037789e-03 1.6265619635847078e-03 0.0000000000000000e+00  -2.0003673456320372e-03 1.8306037174815181e-03 0.0000000000000000e+00  -2.4254975985068842e-03 2.0402963565664838e-03 0.0000000000000000e+00  -2.8891750669094753e-03 2.2540124298287638e-03 0.0000000000000000e+00  -3.3869148550679518e-03 2.4699799982186945e-03 0.0000000000000000e+00  -3.9120228170122055e-03 2.6862835934917569e-03 0.0000000000000000e+00  -4.4550517441009326e-03 2.9008679784893305e-03 0.0000000000000000e+00  -5.0031355256609364e-03 3.1115451585885861e-03 0.0000000000000000e+00  -5.5391797603440776e-03 3.3160050674390117e-03 0.0000000000000000e+00  -6.0408853059302145e-03 3.5118302969285092e-03 0.0000000000000000e+00  -6.4795793708336382e-03 3.6965151571622711e-03 0.0000000000000000e+00  -6.8188268680979443e-03 3.8674892310503126e-03 0.0000000000000000e+00  -7.0127926177897858e-03 4.0221454243312867e-03 0.0000000000000000e+00  -7.0043221304532327e-03 4.1578723004632003e-03 0.0000000000000000e+00  -6.7227043787064259e-03 4.2720902237561023e-03 0.0000000000000000e+00  -6.0810730419548452e-03 4.3622905058441509e-03 0.0000000000000000e+00  -4.9733915915655107e-03 4.4260763415422868e-03 0.0000000000000000e+00  -3.2709500564660960e-03 4.4612037928369215e-03 0.0000000000000000e+00  -8.1827432991097800e-04 4.4656203385905350e-03 0.0000000000000000e+00  2.5716917734270850e-03 4.4374973305688313e-03 0.0000000000000000e+00  7.1233317622077892e-03 4.3752505872232637e-03 0.0000000000000000e+00  1.3105317333616341e-02 4.2775393524245109e-03 0.0000000000000000e+00  2.0839200945551365e-02 4.1432266927109484e-03 0.0000000000000000e+00  3.0710237776408220e-02 3.9712753108728273e-03 0.0000000000000000e+00  4.3181286666722898e-02 3.7605582495806064e-03 0.0000000000000000e+00  5.8810995176778298e-02 3.5096556656970478e-03 0.0000000000000000e+00  0.0000000000000000e+00 -8.2630310687036455e-05 0.0000000000000000e+00  4.9916405675180800e-05 -7.2265626617673507e-05 0.0000000000000000e+00  9.5606760583293360e-05 -4.1796699147661285e-05 0.0000000000000000e+00  1.3317497942500048e-04 8.6510273439960900e-06 0.0000000000000000e+00  1.5877872089174630e-04 7.8867098588573681e-05 0.0000000000000000e+00  1.6857519342898712e-04 1.6857519342936635e-04 0.0000000000000000e+00  1.5877493346731365e-04 2.7741756035525213e-04 0.0000000000000000e+00  1.2568599882500296e-04 4.0494382519613256e-04 0.0000000000000000e+00  6.5751917239405226e-05 5.5060283700584102e-04 0.0000000000000000e+00  -2.4407802767385994e-05 7.1373493088636869e-04 0.0000000000000000e+00  -1.4794983506981920e-04 8.9356377487693583e-04 0.0000000000000000e+00  -3.0774840500487832e-04 1.0891876849410743e-03 0.0000000000000000e+00  -5.0632233628590572e-04 1.2995705400920088e-03 0.0000000000000000e+00  -7.4574362729293764e-04 1.5235325298691060e-03 0.0000000000000000e+00  -1.0275224791383133e-03 1.7597410247465880e-03 0.0000000000000000e+00  -1.3524625317488919e-03 2.0067019098889455e-03 0.0000000000000000e+00  -1.7204786769069007e-03 2.2627517728590718e-03 0.0000000000000000e+00  -2.1303682167705430e-03 2.5260513850353561e-03 0.0000000000000000e+00  -2.5795243361412187e-03 2.7945809641290098e-03 0.0000000000000000e+00  -3.0635788853378755e-03 3.0661377464878833e-03 0.0000000000000000e+00  -3.5759593722655492e-03 3.3383364298669596e-03 0.0000000000000000e+00  -4.1073428981388688e-03 3.6086130658199260e-03 0.0000000000000000e+00  -4.6449876117015459e-03 3.8742329794474463e-03 0.0000000000000000e+00  -5.1719201705650022e-03 4.1323032684324719e-03 0.0000000000000000e+00  -5.6659557307615002e-03 4.3797903748587601e-03 0.0000000000000000e+00  -6.0985251284183207e-03 4.6135431257428323e-03 0.0000000000000000e+00  -6.4332820658979054e-03 4.8303214935434338e-03 0.0000000000000000e+00  -6.6244610148821102e-03 5.0268311280361388e-03 0.0000000000000000e+00  -6.6149537335532206e-03 5.1997634471745513e-03 0.0000000000000000e+00  -6.3340680112608317e-03 5.3458407376540708e-03 0.0000000000000000e+00  -5.6949253801178486e-03 5.4618652937973387e-03 0.0000000000000000e+00  -4.5914434791082658e-03 5.5447710965949850e-03 0.0000000000000000e+00  -2.8948313324961210e-03 5.5916758701592770e-03 0.0000000000000000e+00  -4.4949901990705985e-04 5.5999304824994800e-03 0.0000000000000000e+00  2.9317570485723524e-03 5.5671614609880864e-03 0.0000000000000000e+00  7.4734915623091043e-03 5.4913007018538608e-03 0.0000000000000000e+00  1.3444555827015823e-02 5.3705942533727102e-03 0.0000000000000000e+00  2.1166663548751234e-02 5.2035803792323211e-03 0.0000000000000000e+00  3.1025174503727861e-02 4.9890307869774201e-03 0.0000000000000000e+00  4.3482971977348885e-02 4.7258722288139408e-03 0.0000000000000000e+00  5.9098758375730559e-02 4.4131758991528105e-03 0.0000000000000000e+00  0.0000000000000000e+00 -1.4237111442756337e-04 0.0000000000000000e+00  7.1619305608632374e-05 -1.3000159370807335e-04 0.0000000000000000e+00  1.3907994725968385e-04 -9.3523059366166096e-05 0.0000000000000000e+00  1.9843920948996765e-04 -3.3062273818718414e-05 0.0000000000000000e+00  2.4583215305988267e-04 5.1145425412238679e-05 0.0000000000000000e+00  2.7741756034610141e-04 1.5877493347282341e-04 0.0000000000000000e+00  2.8940433530254224e-04 2.8940433530953686e-04 0.0000000000000000e+00  2.7809037406942375e-04 4.4250391684603531e-04 0.0000000000000000e+00  2.3989970063464315e-04 6.1742638660324098e-04 0.0000000000000000e+00  1.7142247465290337e-04 8.1339722039938298e-04 0.0000000000000000e+00  6.9462178640282695e-05 1.0295044868728234e-03 0.0000000000000000e+00  -6.8906449544735727e-05 1.2646880276476809e-03 0.0000000000000000e+00  -2.4626509914968945e-04 1.5177281213386885e-03 0.0000000000000000e+00  -4.6476095365571547e-04 1.7872338868555771e-03 0.0000000000000000e+00  -7.2599200144919120e-04 2.0716317606216117e-03 0.0000000000000000e+00  -1.0308622893605030e-03 2.3691544469679141e-03 0.0000000000000000e+00  -1.3793994330018918e-03 2.6778308029499912e-03 0.0000000000000000e+00  -1.7705250974359007e-03 2.9954771795206556e-03 0.0000000000000000e+00  -2.2017673630552641e-03 3.3196908004202333e-03 0.0000000000000000e+00  -2.6689019237004525e-03 3.6478458143073839e-03 0.0000000000000000e+00  -3.1655069728960855e-03 3.9770927000874921e-03 0.0000000000000000e+00  -3.6824144812052004e-03 4.3043617353855810e-03 0.0000000000000000e+00  -4.2070384240946133e-03 4.6263712459331478e-03 0.0000000000000000e+00  -4.7225584551249828e-03 4.9396413331947338e-03 0.0000000000000000e+00  -5.2069355792770033e-03 5.2405137190137518e-03 0.0000000000000000e+00  -5.6317345577147409e-03 5.5251782409933593e-03 0.0000000000000000e+00  -5.9607259639485981e-03 5.7897063702446452e-03 0.0000000000000000e+00  -6.1482387575469638e-03 6.0300918938691866e-03 0.0000000000000000e+00  -6.1372314781854755e-03 6.2422985966599284e-03 0.0000000000000000e+00  -5.8570459365631655e-03 6.4223143795231396e-03 0.0000000000000000e+00  -5.2208004689675265e-03 6.5662107539794729e-03 0.0000000000000000e+00  -4.1223688438821555e-03 6.6702060408997711e-03 0.0000000000000000e+00  -2.4328735858920696e-03 6.7307298652180530e-03 0.0000000000000000e+00  3.4041519123458308e-06 6.7444856695711925e-03 0.0000000000000000e+00  3.3738360698743483e-03 6.7085069872785032e-03 0.0000000000000000e+00  7.9