<?xml version="1.0"?>
<VTKFile type="UnstructuredGrid"  version="0.1"  >
<UnstructuredGrid>
<Piece  NumberOfPoints="1681" NumberOfCells="3200">
<Points>
<DataArray  type="Float64"  NumberOfComponents="3"  format="ascii">0 0 0  0.5 0 0  1 0 0  1.5 0 0  2 0 0  2.5 0 0  3 0 0  3.5 0 0  4 0 0  4.5 0 0  5 0 0  5.5 0 0  6 0 0  6.5 0 0  7 0 0  7.5 0 0  8 0 0  8.5 0 0  9 0 0  9.5 0 0  10 0 0  10.5 0 0  11 0 0  11.5 0 0  12 0 0  12.5 0 0  13 0 0  13.5 0 0  14 0 0  14.5 0 0  15 0 0  15.5 0 0  16 0 0  16.5 0 0  17 0 0  17.5 0 0  18 0 0  18.5 0 0  19 0 0  19.5 0 0  20 0 0  0 0.5 0  0.5 0.5 0  1 0.5 0  1.5 0.5 0  2 0.5 0  2.5 0.5 0  3 0.5 0  3.5 0.5 0  4 0.5 0  4.5 0.5 0  5 0.5 0  5.5 0.5 0  6 0.5 0  6.5 0.5 0  7 0.5 0  7.5 0.5 0  8 0.5 0  8.5 0.5 0  9 0.5 0  9.5 0.5 0  10 0.5 0  10.5 0.5 0  11 0.5 0  11.5 0.5 0  12 0.5 0  12.5 0.5 0  13 0.5 0  13.5 0.5 0  14 0.5 0  14.5 0.5 0  15 0.5 0  15.5 0.5 0  16 0.5 0  16.5 0.5 0  17 0.5 0  17.5 0.5 0  18 0.5 0  18.5 0.5 0  19 0.5 0  19.5 0.5 0  20 0.5 0  0 1 0  0.5 1 0  1 1 0  1.5 1 0  2 1 0  2.5 1 0  3 1 0  3.5 1 0  4 1 0  4.5 1 0  5 1 0  5.5 1 0  6 1 0  6.5 1 0  7 1 0  7.5 1 0  8 1 0  8.5 1 0  9 1 0  9.5 1 0  10 1 0  10.5 1 0  11 1 0  11.5 1 0  12 1 0  12.5 1 0  13 1 0  13.5 1 0  14 1 0  14.5 1 0  15 1 0  15.5 1 0  16 1 0  16.5 1 0  17 1 0  17.5 1 0  18 1 0  18.5 1 0  19 1 0  19.5 1 0  20 1 0  0 1.5 0  0.5 1.5 0  1 1.5 0  1.5 1.5 0  2 1.5 0  2.5 1.5 0  3 1.5 0  3.5 1.5 0  4 1.5 0  4.5 1.5 0  5 1.5 0  5.5 1.5 0  6 1.5 0  6.5 1.5 0  7 1.5 0  7.5 1.5 0  8 1.5 0  8.5 1.5 0  9 1.5 0  9.5 1.5 0  10 1.5 0  10.5 1.5 0  11 1.5 0  11.5 1.5 0  12 1.5 0  12.5 1.5 0  13 1.5 0  13.5 1.5 0  14 1.5 0  14.5 1.5 0  15 1.5 0  15.5 1.5 0  16 1.5 0  16.5 1.5 0  17 1.5 0  17.5 1.5 0  18 1.5 0  18.5 1.5 0  19 1.5 0  19.5 1.5 0  20 1.5 0  0 2 0  0.5 2 0  1 2 0  1.5 2 0  2 2 0  2.5 2 0  3 2 0  3.5 2 0  4 2 0  4.5 2 0  5 2 0  5.5 2 0  6 2 0  6.5 2 0  7 2 0  7.5 2 0  8 2 0  8.5 2 0  9 2 0  9.5 2 0  10 2 0  10.5 2 0  11 2 0  11.5 2 0  12 2 0  12.5 2 0  13 2 0  13.5 2 0  14 2 0  14.5 2 0  15 2 0  15.5 2 0  16 2 0  16.5 2 0  17 2 0  17.5 2 0  18 2 0  18.5 2 0  19 2 0  19.5 2 0  20 2 0  0 2.5 0  0.5 2.5 0  1 2.5 0  1.5 2.5 0  2 2.5 0  2.5 2.5 0  3 2.5 0  3.5 2.5 0  4 2.5 0  4.5 2.5 0  5 2.5 0  5.5 2.5 0  6 2.5 0  6.5 2.5 0  7 2.5 0  7.5 2.5 0  8 2.5 0  8.5 2.5 0  9 2.5 0  9.5 2.5 0  10 2.5 0  10.5 2.5 0  11 2.5 0  11.5 2.5 0  12 2.5 0  12.5 2.5 0  13 2.5 0  13.5 2.5 0  14 2.5 0  14.5 2.5 0  15 2.5 0  15.5 2.5 0  16 2.5 0  16.5 2.5 0  17 2.5 0  17.5 2.5 0  18 2.5 0  18.5 2.5 0  19 2.5 0  19.5 2.5 0  20 2.5 0  0 3 0  0.5 3 0  1 3 0  1.5 3 0  2 3 0  2.5 3 0  3 3 0  3.5 3 0  4 3 0  4.5 3 0  5 3 0  5.5 3 0  6 3 0  6.5 3 0  7 3 0  7.5 3 0  8 3 0  8.5 3 0  9 3 0  9.5 3 0  10 3 0  10.5 3 0  11 3 0  11.5 3 0  12 3 0  12.5 3 0  13 3 0  13.5 3 0  14 3 0  14.5 3 0  15 3 0  15.5 3 0  16 3 0  16.5 3 0  17 3 0  17.5 3 0  18 3 0  18.5 3 0  19 3 0  19.5 3 0  20 3 0  0 3.5 0  0.5 3.5 0  1 3.5 0  1.5 3.5 0  2 3.5 0  2.5 3.5 0  3 3.5 0  3.5 3.5 0  4 3.5 0  4.5 3.5 0  5 3.5 0  5.5 3.5 0  6 3.5 0  6.5 3.5 0  7 3.5 0  7.5 3.5 0  8 3.5 0  8.5 3.5 0  9 3.5 0  9.5 3.5 0  10 3.5 0  10.5 3.5 0  11 3.5 0  11.5 3.5 0  12 3.5 0  12.5 3.5 0  13 3.5 0  13.5 3.5 0  14 3.5 0  14.5 3.5 0  15 3.5 0  15.5 3.5 0  16 3.5 0  16.5 3.5 0  17 3.5 0  17.5 3.5 0  18 3.5 0  18.5 3.5 0  19 3.5 0  19.5 3.5 0  20 3.5 0  0 4 0  0.5 4 0  1 4 0  1.5 4 0  2 4 0  2.5 4 0  3 4 0  3.5 4 0  4 4 0  4.5 4 0  5 4 0  5.5 4 0  6 4 0  6.5 4 0  7 4 0  7.5 4 0  8 4 0  8.5 4 0  9 4 0  9.5 4 0  10 4 0  10.5 4 0  11 4 0  11.5 4 0  12 4 0  12.5 4 0  13 4 0  13.5 4 0  14 4 0  14.5 4 0  15 4 0  15.5 4 0  16 4 0  16.5 4 0  17 4 0  17.5 4 0  18 4 0  18.5 4 0  19 4 0  19.5 4 0  20 4 0  0 4.5 0  0.5 4.5 0  1 4.5 0  1.5 4.5 0  2 4.5 0  2.5 4.5 0  3 4.5 0  3.5 4.5 0  4 4.5 0  4.5 4.5 0  5 4.5 0  5.5 4.5 0  6 4.5 0  6.5 4.5 0  7 4.5 0  7.5 4.5 0  8 4.5 0  8.5 4.5 0  9 4.5 0  9.5 4.5 0  10 4.5 0  10.5 4.5 0  11 4.5 0  11.5 4.5 0  12 4.5 0  12.5 4.5 0  13 4.5 0  13.5 4.5 0  14 4.5 0  14.5 4.5 0  15 4.5 0  15.5 4.5 0  16 4.5 0  16.5 4.5 0  17 4.5 0  17.5 4.5 0  18 4.5 0  18.5 4.5 0  19 4.5 0  19.5 4.5 0  20 4.5 0  0 5 0  0.5 5 0  1 5 0  1.5 5 0  2 5 0  2.5 5 0  3 5 0  3.5 5 0  4 5 0  4.5 5 0  5 5 0  5.5 5 0  6 5 0  6.5 5 0  7 5 0  7.5 5 0  8 5 0  8.5 5 0  9 5 0  9.5 5 0  10 5 0  10.5 5 0  11 5 0  11.5 5 0  12 5 0  12.5 5 0  13 5 0  13.5 5 0  14 5 0  14.5 5 0  15 5 0  15.5 5 0  16 5 0  16.5 5 0  17 5 0  17.5 5 0  18 5 0  18.5 5 0  19 5 0  19.5 5 0  20 5 0  0 5.5 0  0.5 5.5 0  1 5.5 0  1.5 5.5 0  2 5.5 0  2.5 5.5 0  3 5.5 0  3.5 5.5 0  4 5.5 0  4.5 5.5 0  5 5.5 0  5.5 5.5 0  6 5.5 0  6.5 5.5 0  7 5.5 0  7.5 5.5 0  8 5.5 0  8.5 5.5 0  9 5.5 0  9.5 5.5 0  10 5.5 0  10.5 5.5 0  11 5.5 0  11.5 5.5 0  12 5.5 0  12.5 5.5 0  13 5.5 0  13.5 5.5 0  14 5.5 0  14.5 5.5 0  15 5.5 0  15.5 5.5 0  16 5.5 0  16.5 5.5 0  17 5.5 0  17.5 5.5 0  18 5.5 0  18.5 5.5 0  19 5.5 0  19.5 5.5 0  20 5.5 0  0 6 0  0.5 6 0  1 6 0  1.5 6 0  2 6 0  2.5 6 0  3 6 0  3.5 6 0  4 6 0  4.5 6 0  5 6 0  5.5 6 0  6 6 0  6.5 6 0  7 6 0  7.5 6 0  8 6 0  8.5 6 0  9 6 0  9.5 6 0  10 6 0  10.5 6 0  11 6 0  11.5 6 0  12 6 0  12.5 6 0  13 6 0  13.5 6 0  14 6 0  14.5 6 0  15 6 0  15.5 6 0  16 6 0  16.5 6 0  17 6 0  17.5 6 0  18 6 0  18.5 6 0  19 6 0  19.5 6 0  20 6 0  0 6.5 0  0.5 6.5 0  1 6.5 0  1.5 6.5 0  2 6.5 0  2.5 6.5 0  3 6.5 0  3.5 6.5 0  4 6.5 0  4.5 6.5 0  5 6.5 0  5.5 6.5 0  6 6.5 0  6.5 6.5 0  7 6.5 0  7.5 6.5 0  8 6.5 0  8.5 6.5 0  9 6.5 0  9.5 6.5 0  10 6.5 0  10.5 6.5 0  11 6.5 0  11.5 6.5 0  12 6.5 0  12.5 6.5 0  13 6.5 0  13.5 6.5 0  14 6.5 0  14.5 6.5 0  15 6.5 0  15.5 6.5 0  16 6.5 0  16.5 6.5 0  17 6.5 0  17.5 6.5 0  18 6.5 0  18.5 6.5 0  19 6.5 0  19.5 6.5 0  20 6.5 0  0 7 0  0.5 7 0  1 7 0  1.5 7 0  2 7 0  2.5 7 0  3 7 0  3.5 7 0  4 7 0  4.5 7 0  5 7 0  5.5 7 0  6 7 0  6.5 7 0  7 7 0  7.5 7 0  8 7 0  8.5 7 0  9 7 0  9.5 7 0  10 7 0  10.5 7 0  11 7 0  11.5 7 0  12 7 0  12.5 7 0  13 7 0  13.5 7 0  14 7 0  14.5 7 0  15 7 0  15.5 7 0  16 7 0  16.5 7 0  17 7 0  17.5 7 0  18 7 0  18.5 7 0  19 7 0  19.5 7 0  20 7 0  0 7.5 0  0.5 7.5 0  1 7.5 0  1.5 7.5 0  2 7.5 0  2.5 7.5 0  3 7.5 0  3.5 7.5 0  4 7.5 0  4.5 7.5 0  5 7.5 0  5.5 7.5 0  6 7.5 0  6.5 7.5 0  7 7.5 0  7.5 7.5 0  8 7.5 0  8.5 7.5 0  9 7.5 0  9.5 7.5 0  10 7.5 0  10.5 7.5 0  11 7.5 0  11.5 7.5 0  12 7.5 0  12.5 7.5 0  13 7.5 0  13.5 7.5 0  14 7.5 0  14.5 7.5 0  15 7.5 0  15.5 7.5 0  16 7.5 0  16.5 7.5 0  17 7.5 0  17.5 7.5 0  18 7.5 0  18.5 7.5 0  19 7.5 0  19.5 7.5 0  20 7.5 0  0 8 0  0.5 8 0  1 8 0  1.5 8 0  2 8 0  2.5 8 0  3 8 0  3.5 8 0  4 8 0  4.5 8 0  5 8 0  5.5 8 0  6 8 0  6.5 8 0  7 8 0  7.5 8 0  8 8 0  8.5 8 0  9 8 0  9.5 8 0  10 8 0  10.5 8 0  11 8 0  11.5 8 0  12 8 0  12.5 8 0  13 8 0  13.5 8 0  14 8 0  14.5 8 0  15 8 0  15.5 8 0  16 8 0  16.5 8 0  17 8 0  17.5 8 0  18 8 0  18.5 8 0  19 8 0  19.5 8 0  20 8 0  0 8.5 0  0.5 8.5 0  1 8.5 0  1.5 8.5 0  2 8.5 0  2.5 8.5 0  3 8.5 0  3.5 8.5 0  4 8.5 0  4.5 8.5 0  5 8.5 0  5.5 8.5 0  6 8.5 0  6.5 8.5 0  7 8.5 0  7.5 8.5 0  8 8.5 0  8.5 8.5 0  9 8.5 0  9.5 8.5 0  10 8.5 0  10.5 8.5 0  11 8.5 0  11.5 8.5 0  12 8.5 0  12.5 8.5 0  13 8.5 0  13.5 8.5 0  14 8.5 0  14.5 8.5 0  15 8.5 0  15.5 8.5 0  16 8.5 0  16.5 8.5 0  17 8.5 0  17.5 8.5 0  18 8.5 0  18.5 8.5 0  19 8.5 0  19.5 8.5 0  20 8.5 0  0 9 0  0.5 9 0  1 9 0  1.5 9 0  2 9 0  2.5 9 0  3 9 0  3.5 9 0  4 9 0  4.5 9 0  5 9 0  5.5 9 0  6 9 0  6.5 9 0  7 9 0  7.5 9 0  8 9 0  8.5 9 0  9 9 0  9.5 9 0  10 9 0  10.5 9 0  11 9 0  11.5 9 0  12 9 0  12.5 9 0  13 9 0  13.5 9 0  14 9 0  14.5 9 0  15 9 0  15.5 9 0  16 9 0  16.5 9 0  17 9 0  17.5 9 0  18 9 0  18.5 9 0  19 9 0  19.5 9 0  20 9 0  0 9.5 0  0.5 9.5 0  1 9.5 0  1.5 9.5 0  2 9.5 0  2.5 9.5 0  3 9.5 0  3.5 9.5 0  4 9.5 0  4.5 9.5 0  5 9.5 0  5.5 9.5 0  6 9.5 0  6.5 9.5 0  7 9.5 0  7.5 9.5 0  8 9.5 0  8.5 9.5 0  9 9.5 0  9.5 9.5 0  10 9.5 0  10.5 9.5 0  11 9.5 0  11.5 9.5 0  12 9.5 0  12.5 9.5 0  13 9.5 0  13.5 9.5 0  14 9.5 0  14.5 9.5 0  15 9.5 0  15.5 9.5 0  16 9.5 0  16.5 9.5 0  17 9.5 0  17.5 9.5 0  18 9.5 0  18.5 9.5 0  19 9.5 0  19.5 9.5 0  20 9.5 0  0 10 0  0.5 10 0  1 10 0  1.5 10 0  2 10 0  2.5 10 0  3 10 0  3.5 10 0  4 10 0  4.5 10 0  5 10 0  5.5 10 0  6 10 0  6.5 10 0  7 10 0  7.5 10 0  8 10 0  8.5 10 0  9 10 0  9.5 10 0  10 10 0  10.5 10 0  11 10 0  11.5 10 0  12 10 0  12.5 10 0  13 10 0  13.5 10 0  14 10 0  14.5 10 0  15 10 0  15.5 10 0  16 10 0  16.5 10 0  17 10 0  17.5 10 0  18 10 0  18.5 10 0  19 10 0  19.5 10 0  20 10 0  0 10.5 0  0.5 10.5 0  1 10.5 0  1.5 10.5 0  2 10.5 0  2.5 10.5 0  3 10.5 0  3.5 10.5 0  4 10.5 0  4.5 10.5 0  5 10.5 0  5.5 10.5 0  6 10.5 0  6.5 10.5 0  7 10.5 0  7.5 10.5 0  8 10.5 0  8.5 10.5 0  9 10.5 0  9.5 10.5 0  10 10.5 0  10.5 10.5 0  11 10.5 0  11.5 10.5 0  12 10.5 0  12.5 10.5 0  13 10.5 0  13.5 10.5 0  14 10.5 0  14.5 10.5 0  15 10.5 0  15.5 10.5 0  16 10.5 0  16.5 10.5 0  17 10.5 0  17.5 10.5 0  18 10.5 0  18.5 10.5 0  19 10.5 0  19.5 10.5 0  20 10.5 0  0 11 0  0.5 11 0  1 11 0  1.5 11 0  2 11 0  2.5 11 0  3 11 0  3.5 11 0  4 11 0  4.5 11 0  5 11 0  5.5 11 0  6 11 0  6.5 11 0  7 11 0  7.5 11 0  8 11 0  8.5 11 0  9 11 0  9.5 11 0  10 11 0  10.5 11 0  11 11 0  11.5 11 0  12 11 0  12.5 11 0  13 11 0  13.5 11 0  14 11 0  14.5 11 0  15 11 0  15.5 11 0  16 11 0  16.5 11 0  17 11 0  17.5 11 0  18 11 0  18.5 11 0  19 11 0  19.5 11 0  20 11 0  0 11.5 0  0.5 11.5 0  1 11.5 0  1.5 11.5 0  2 11.5 0  2.5 11.5 0  3 11.5 0  3.5 11.5 0  4 11.5 0  4.5 11.5 0  5 11.5 0  5.5 11.5 0  6 11.5 0  6.5 11.5 0  7 11.5 0  7.5 11.5 0  8 11.5 0  8.5 11.5 0  9 11.5 0  9.5 11.5 0  10 11.5 0  10.5 11.5 0  11 11.5 0  11.5 11.5 0  12 11.5 0  12.5 11.5 0  13 11.5 0  13.5 11.5 0  14 11.5 0  14.5 11.5 0  15 11.5 0  15.5 11.5 0  16 11.5 0  16.5 11.5 0  17 11.5 0  17.5 11.5 0  18 11.5 0  18.5 11.5 0  19 11.5 0  19.5 11.5 0  20 11.5 0  0 12 0  0.5 12 0  1 12 0  1.5 12 0  2 12 0  2.5 12 0  3 12 0  3.5 12 0  4 12 0  4.5 12 0  5 12 0  5.5 12 0  6 12 0  6.5 12 0  7 12 0  7.5 12 0  8 12 0  8.5 12 0  9 12 0  9.5 12 0  10 12 0  10.5 12 0  11 12 0  11.5 12 0  12 12 0  12.5 12 0  13 12 0  13.5 12 0  14 12 0  14.5 12 0  
[...]
<PointData  Vectors="f_2975-0"> 
<DataArray  type="Float64"  Name="f_2975-0"  NumberOfComponents="3" format="ascii">0.0000000000000000e+00 0.0000000000000000e+00 0.0000000000000000e+00  5.1102303776461254e-06 0.0000000000000000e+00 0.0000000000000000e+00  3.5333216132063360e-06 0.0000000000000000e+00 0.0000000000000000e+00  -1.5166906255580151e-05 0.0000000000000000e+00 0.0000000000000000e+00  -5.9460387510087478e-05 0.0000000000000000e+00 0.0000000000000000e+00  -1.3740892224110832e-04 0.0000000000000000e+00 0.0000000000000000e+00  -2.5667673031153635e-04 0.0000000000000000e+00 0.0000000000000000e+00  -4.2440893491895538e-04 0.0000000000000000e+00 0.0000000000000000e+00  -6.4708666650686723e-04 0.0000000000000000e+00 0.0000000000000000e+00  -9.3036095627069694e-04 0.0000000000000000e+00 0.0000000000000000e+00  -1.2788603163963624e-03 0.0000000000000000e+00 0.0000000000000000e+00  -1.6959666184422153e-03 0.0000000000000000e+00 0.0000000000000000e+00  -2.1835536413499631e-03 0.0000000000000000e+00 0.0000000000000000e+00  -2.7416822471197882e-03 0.0000000000000000e+00 0.0000000000000000e+00  -3.3682456636256819e-03 0.0000000000000000e+00 0.0000000000000000e+00  -4.0585578530354131e-03 0.0000000000000000e+00 0.0000000000000000e+00  -4.8048774274277199e-03 0.0000000000000000e+00 0.0000000000000000e+00  -5.5958590294033217e-03 0.0000000000000000e+00 0.0000000000000000e+00  -6.4159234982147685e-03 0.0000000000000000e+00 0.0000000000000000e+00  -7.2445374424346676e-03 0.0000000000000000e+00 0.0000000000000000e+00  -8.0553919637797768e-03 0.0000000000000000e+00 0.0000000000000000e+00  -8.8154691108129259e-03 0.0000000000000000e+00 0.0000000000000000e+00  -9.4839830277066075e-03 0.0000000000000000e+00 0.0000000000000000e+00  -1.0011180483807931e-02 0.0000000000000000e+00 0.0000000000000000e+00  -1.0336982228120468e-02 0.0000000000000000e+00 0.0000000000000000e+00  -1.0389442012765829e-02 0.0000000000000000e+00 0.0000000000000000e+00  -1.0082993638775344e-02 0.0000000000000000e+00 0.0000000000000000e+00  -9.3164472773021676e-03 0.0000000000000000e+00 0.0000000000000000e+00  -7.9706836246684499e-03 0.0000000000000000e+00 0.0000000000000000e+00  -5.9059767843136516e-03 0.0000000000000000e+00 0.0000000000000000e+00  -2.9588521595698219e-03 0.0000000000000000e+00 0.0000000000000000e+00  1.0616488179216988e-03 0.0000000000000000e+00 0.0000000000000000e+00  6.3784740325178394e-03 0.0000000000000000e+00 0.0000000000000000e+00  1.3252082983225293e-02 0.0000000000000000e+00 0.0000000000000000e+00  2.1987335577886166e-02 0.0000000000000000e+00 0.0000000000000000e+00  3.2942252289609286e-02 0.0000000000000000e+00 0.0000000000000000e+00  4.6539397351256714e-02 0.0000000000000000e+00 0.0000000000000000e+00  6.3281067803114044e-02 0.0000000000000000e+00 0.0000000000000000e+00  8.3770402672694130e-02 0.0000000000000000e+00 0.0000000000000000e+00  1.0874349641281118e-01 0.0000000000000000e+00 0.0000000000000000e+00  1.3912865220575410e-01 0.0000000000000000e+00 0.0000000000000000e+00  0.0000000000000000e+00 5.1102303766748954e-06 0.0000000000000000e+00  1.1480231578009537e-05 1.1480231578707142e-05 0.0000000000000000e+00  1.4032410190381719e-05 2.6434858087826487e-05 0.0000000000000000e+00  -2.6887729428829792e-07 5.0075518485413048e-05 0.0000000000000000e+00  -3.9989291449045791e-05 8.2697822610190290e-05 0.0000000000000000e+00  -1.1329887034817497e-04 1.2433353738527500e-04 0.0000000000000000e+00  -2.2790724409231958e-04 1.7486526919297069e-04 0.0000000000000000e+00  -3.9097998806206881e-04 2.3409356578814954e-04 0.0000000000000000e+00  -6.0901061599923090e-04 3.0175996082225853e-04 0.0000000000000000e+00  -8.8766059709048011e-04 3.7755261042050718e-04 0.0000000000000000e+00  -1.2315692784595218e-03 4.6110586701508604e-04 0.0000000000000000e+00  -1.6441307809317604e-03 5.5199770837187053e-04 0.0000000000000000e+00  -2.1272330505446428e-03 6.4974635145653248e-04 0.0000000000000000e+00  -2.6809533020411879e-03 7.5380655592541626e-04 0.0000000000000000e+00  -3.3032034354847123e-03 8.6356586698127318e-04 0.0000000000000000e+00  -3.9893184420212308e-03 9.7834097105259257e-04 0.0000000000000000e+00  -4.7315802720744107e-03 1.0973743198239105e-03 0.0000000000000000e+00  -5.5186690837671767e-03 1.2198311807350675e-03 0.0000000000000000e+00  -6.3350331858316507e-03 1.3447972811657216e-03 0.0000000000000000e+00  -7.1601682867709678e-03 1.4712772248493895e-03 0.0000000000000000e+00  -7.9677957834369227e-03 1.5981938692018482e-03 0.0000000000000000e+00  -8.7249286552685667e-03 1.7243888602548982e-03 0.0000000000000000e+00  -9.3908119163965929e-03 1.8486245255442100e-03 0.0000000000000000e+00  -9.9157222978081706e-03 1.9695873236232129e-03 0.0000000000000000e+00  -1.0239608590001758e-02 2.0858930394211223e-03 0.0000000000000000e+00  -1.0290549475952619e-02 2.1960938955942152e-03 0.0000000000000000e+00  -9.9829991914111398e-03 2.2986877181640137e-03 0.0000000000000000e+00  -9.2157822443650061e-03 2.3921292465605109e-03 0.0000000000000000e+00  -7.8697857201367044e-03 2.4748436097459009e-03 0.0000000000000000e+00  -5.8052800129390365e-03 2.5452418970505716e-03 0.0000000000000000e+00  -2.8587741849190784e-03 2.6017386307673009e-03 0.0000000000000000e+00  1.1607223384985886e-03 2.6427707938840948e-03 0.0000000000000000e+00  6.4762087466659441e-03 2.6668178691561365e-03 0.0000000000000000e+00  1.3348219237323574e-02 2.6724220686133115e-03 0.0000000000000000e+00  2.2081715141046974e-02 2.6582074870022000e-03 0.0000000000000000e+00  3.3034842230295264e-02 2.6228962527884898e-03 0.0000000000000000e+00  4.6630283066201740e-02 2.5653198933731549e-03 0.0000000000000000e+00  6.3370293675648601e-02 2.4844325272024331e-03 0.0000000000000000e+00  8.3857070904015632e-02 2.3793840185723667e-03 0.0000000000000000e+00  1.0882072861659246e-01 2.2499270598484622e-03 0.0000000000000000e+00  1.3915515130496650e-01 2.0979476064260098e-03 0.0000000000000000e+00  0.0000000000000000e+00 3.5333216120218507e-06 0.0000000000000000e+00  2.6434858089888544e-05 1.4032410193268023e-05 0.0000000000000000e+00  4.3144465890816783e-05 4.3144465890032776e-05 0.0000000000000000e+00  4.2772778259783410e-05 9.0488218557442169e-05 0.0000000000000000e+00  1.6976280361528459e-05 1.5598583405002043e-04 0.0000000000000000e+00  -4.2374814272690024e-05 2.3948406756942761e-04 0.0000000000000000e+00  -1.4300434379839762e-04 3.4071691120436963e-04 0.0000000000000000e+00  -2.9210172592962464e-04 4.5930058839601198e-04 0.0000000000000000e+00  -4.9618562327972558e-04 5.9473788496524932e-04 0.0000000000000000e+00  -7.6094428114207538e-04 7.4642097321133728e-04 0.0000000000000000e+00  -1.0910470527307119e-03 9.1363051010707802e-04 0.0000000000000000e+00  -1.4899226783212894e-03 1.0955317642460931e-03 0.0000000000000000e+00  -1.9594993208351314e-03 1.2911688833441395e-03 0.0000000000000000e+00  -2.4999006547727553e-03 1.4994581559989492e-03 0.0000000000000000e+00  -3.1090916573385170e-03 1.7191808676547645e-03 0.0000000000000000e+00  -3.7824671560438357e-03 1.9489762010978984e-03 0.0000000000000000e+00  -4.5123756191682721e-03 2.1873345629414712e-03 0.0000000000000000e+00  -5.2875701038042422e-03 2.4325916964012930e-03 0.0000000000000000e+00  -6.0925776633363746e-03 2.6829239430118824e-03 0.0000000000000000e+00  -6.9069778089549116e-03 2.9363450297544948e-03 0.0000000000000000e+00  -7.7045797395613831e-03 3.1907047737014384e-03 0.0000000000000000e+00  -8.4524868881935954e-03 3.4436901101530734e-03 0.0000000000000000e+00  -9.1100357217963578e-03 3.6928288567765442e-03 0.0000000000000000e+00  -9.6275934557881037e-03 3.9354966229691009e-03 0.0000000000000000e+00  -9.9451961096943559e-03 4.1689272560326181e-03 0.0000000000000000e+00  -9.9910037379678674e-03 4.3902271802199978e-03 0.0000000000000000e+00  -9.6795431880782653e-03 4.5963939264872409e-03 0.0000000000000000e+00  -8.9096996456241896e-03 4.7843390651610548e-03 0.0000000000000000e+00  -7.5624055374876814e-03 4.9509156348835383e-03 0.0000000000000000e+00  -5.4979577018441431e-03 5.0929500044946674e-03 0.0000000000000000e+00  -2.5528691371114664e-03 5.2072779041735223e-03 0.0000000000000000e+00  1.4638727535916270e-03 5.2907841138932002e-03 0.0000000000000000e+00  6.7753179826892307e-03 5.3404449959013802e-03 0.0000000000000000e+00  1.3642081540738702e-02 5.3533727065745015e-03 0.0000000000000000e+00  2.2369232416057875e-02 5.3268595867851775e-03 0.0000000000000000e+00  3.3315037226576770e-02 5.2584212046836000e-03 0.0000000000000000e+00  4.6902273562044350e-02 5.1458374769370900e-03 0.0000000000000000e+00  6.3633169911497811e-02 4.9871919324036172e-03 0.0000000000000000e+00  8.4109562091896142e-02 4.7808864382772893e-03 0.0000000000000000e+00  1.0906065257644496e-01 4.5254118968683652e-03 0.0000000000000000e+00  1.3938200735484149e-01 4.2175032271298436e-03 0.0000000000000000e+00  0.0000000000000000e+00 -1.5166906252972116e-05 0.0000000000000000e+00  5.0075518486071755e-05 -2.6887729400588935e-07 0.0000000000000000e+00  9.0488218559576827e-05 4.2772778259901453e-05 0.0000000000000000e+00  1.1354916205791032e-04 1.1354916205338396e-04 0.0000000000000000e+00  1.1109883697691394e-04 2.1177437568631582e-04 0.0000000000000000e+00  7.5065479802905510e-05 3.3710926418985325e-04 0.0000000000000000e+00  -2.2627599869051734e-06 4.8909117356861530e-04 0.0000000000000000e+00  -1.2808642319669697e-04 6.6711798802329594e-04 0.0000000000000000e+00  -3.0894926681006323e-04 8.7044011292731192e-04 0.0000000000000000e+00  -5.5057503576919076e-04 1.0981531692726134e-03 0.0000000000000000e+00  -8.5767809542172549e-04 1.3491901527560406e-03 0.0000000000000000e+00  -1.2337419241350823e-03 1.6223126105538942e-03 0.0000000000000000e+00  -1.6807597094508737e-03 1.9161008162436315e-03 0.0000000000000000e+00  -2.1989309961275064e-03 2.2289432046603340e-03 0.0000000000000000e+00  -2.7863078738636512e-03 2.5590254691039423e-03 0.0000000000000000e+00  -3.4383836784475938e-03 2.9043197837505018e-03 0.0000000000000000e+00  -4.1476166434209552e-03 3.2625746434824777e-03 0.0000000000000000e+00  -4.9028803785060356e-03 3.6313058376857177e-03 0.0000000000000000e+00  -5.6888324412674406e-03 4.0077891005034609e-03 0.0000000000000000e+00  -6.4851915624670100e-03 4.3890550091746751e-03 0.0000000000000000e+00  -7.2659132072898092e-03 4.7718867291204259e-03 0.0000000000000000e+00  -7.9982519926143705e-03 5.1528212267451740e-03 0.0000000000000000e+00  -8.6416978753490956e-03 5.5281545820138915e-03 0.0000000000000000e+00  -9.1467707610935669e-03 5.8939520292425121e-03 0.0000000000000000e+00  -9.4536549598607991e-03 6.2460633293720163e-03 0.0000000000000000e+00  -9.4906503397196740e-03 6.5801440256395196e-03 0.0000000000000000e+00  -9.1724105676784570e-03 6.8916830495315898e-03 0.0000000000000000e+00  -8.3979297599579544e-03 7.1760370184998949e-03 0.0000000000000000e+00  -7.0482262058784526e-03 7.4284713924653639e-03 0.0000000000000000e+00  -4.9836542077799995e-03 7.6442084230680220e-03 0.0000000000000000e+00  -2.0407505402612871e-03 7.8184815267524146e-03 0.0000000000000000e+00  1.9715122683682477e-03 7.9465953245497975e-03 0.0000000000000000e+00  7.2762419325051470e-03 8.0239900945725529e-03 0.0000000000000000e+00  1.4134156581516448e-02 8.0463087252486427e-03 0.0000000000000000e+00  2.2850473502859261e-02 8.0094632785559384e-03 0.0000000000000000e+00  3.3783647531570017e-02 7.9096963371560955e-03 0.0000000000000000e+00  4.7356671219265643e-02 7.7436267956382801e-03 0.0000000000000000e+00  6.4071988915468614e-02 7.5082507957644744e-03 0.0000000000000000e+00  8.4531602140171733e-02 7.2008053286219224e-03 0.0000000000000000e+00  1.0946472662445673e-01 6.8182267285414634e-03 0.0000000000000000e+00  1.3976651499200252e-01 6.3556132760068306e-03 0.0000000000000000e+00  0.0000000000000000e+00 -5.9460387509922584e-05 0.0000000000000000e+00  8.2697822604330110e-05 -3.9989291447852844e-05 0.0000000000000000e+00  1.5598583404878604e-04 1.6976280360250926e-05 0.0000000000000000e+00  2.1177437568624903e-04 1.1109883697349695e-04 0.0000000000000000e+00  2.4196613121021319e-04 2.4196613120602248e-04 0.0000000000000000e+00  2.3853339114789934e-04 4.0908215166720284e-04 0.0000000000000000e+00  1.9377379270628538e-04 6.1180306572668252e-04 0.0000000000000000e+00  1.0047454800199364e-04 8.4931359903442024e-04 0.0000000000000000e+00  -4.7936627992957254e-05 1.1206132773976842e-03 0.0000000000000000e+00  -2.5722672736115009e-04 1.4245041059825060e-03 0.0000000000000000e+00  -5.3216786580587302e-04 1.7595776161406227e-03 0.0000000000000000e+00  -8.7631610110639683e-04 2.1242009781446978e-03 0.0000000000000000e+00  -1.2917525591410112e-03 2.5165023131013967e-03 0.0000000000000000e+00  -1.7787806097162300e-03 2.9343554829985023e-03 0.0000000000000000e+00  -2.3355724338476307e-03 3.3753647386672086e-03 0.0000000000000000e+00  -2.9577578462333717e-03 3.8368496970682150e-03 0.0000000000000000e+00  -3.6379477229501853e-03 4.3158312009138264e-03 0.0000000000000000e+00  -4.3651838377150379e-03 4.8090186861371393e-03 0.0000000000000000e+00  -5.1243063089915497e-03 5.3127997472400519e-03 0.0000000000000000e+00  -5.8952291608407210e-03 5.8232326483068442e-03 0.0000000000000000e+00  -6.6521136286932592e-03 6.3360425761649960e-03 0.0000000000000000e+00  -7.3624276867811722e-03 6.8466224700166447e-03 0.0000000000000000e+00  -7.9858786799674054e-03 7.3500392826520294e-03 0.0000000000000000e+00  -8.4732036909886156e-03 7.8410465279932558e-03 0.0000000000000000e+00  -8.7647990703676043e-03 8.3141039402216416e-03 0.0000000000000000e+00  -8.7891660043180938e-03 8.7634050041656489e-03 0.0000000000000000e+00  -8.4611425639452009e-03 9.1829130055752044e-03 0.0000000000000000e+00  -7.6798836477832023e-03 9.5664060835946099e-03 0.0000000000000000e+00  -6.3265376151528238e-03 9.9075315327703511e-03 0.0000000000000000e+00  -4.2615508376251908e-03 1.0199869283170470e-02 0.0000000000000000e+00  -1.3215069201063675e-03 1.0437004062415104e-02 0.0000000000000000e+00  2.6846268747266469e-03 1.0612605177652812e-02 0.0000000000000000e+00  7.9800216508286951e-03 1.0720512083280188e-02 0.0000000000000000e+00  1.4825521616151005e-02 1.0754822762952183e-02 0.0000000000000000e+00  2.3526534950664715e-02 1.0709980035138015e-02 0.0000000000000000e+00  3.4441770067756963e-02 1.0580847057222158e-02 0.0000000000000000e+00  4.7994524986956576e-02 1.0362754720618433e-02 0.0000000000000000e+00  6.4687569245902507e-02 1.0051484590503035e-02 0.0000000000000000e+00  8.5123162587790874e-02 9.6431162959001102e-03 0.0000000000000000e+00  1.1003051841196899e-01 9.1336414828394052e-03 0.0000000000000000e+00  1.4030422165768136e-01 8.5183900015453982e-03 0.0000000000000000e+00  0.0000000000000000e+00 -1.3740892223701719e-04 0.0000000000000000e+00  1.2433353738893377e-04 -1.1329887034735861e-04 0.0000000000000000e+00  2.3948406757277210e-04 -4.2374814280166391e-05 0.0000000000000000e+00  3.3710926419601195e-04 7.5065479799499461e-05 0.0000000000000000e+00  4.0908215166558489e-04 2.3853339114622099e-04 0.0000000000000000e+00  4.4739917530894294e-04 4.4739917531396074e-04 0.0000000000000000e+00  4.4436245838452620e-04 7.0085398672549426e-04 0.0000000000000000e+00  3.9274316157838780e-04 9.9788336150443183e-04 0.0000000000000000e+00  2.8593469113674040e-04 1.3372490036359806e-03 0.0000000000000000e+00  1.1811802767526778e-04 1.7174721913087302e-03 0.0000000000000000e+00  -1.1554921533907159e-04 2.1368165350952538e-03 0.0000000000000000e+00  -4.1871251609217942e-04 2.5932696052280695e-03 0.0000000000000000e+00  -7.9356251178475470e-04 3.0845235569132946e-03 0.0000000000000000e+00  -1.2405329759518518e-03 3.6079551157725902e-03 0.0000000000000000e+00  -1.7579479333123219e-03 4.1606054050255595e-03 0.0000000000000000e+00  -2.3416106811202700e-03 4.7391601886899821e-03 0.0000000000000000e+00  -2.9843269786296958e-03 5.3399311944868919e-03 0.0000000000000000e+00  -3.6753541230002454e-03 5.9588392690881238e-03 0.0000000000000000e+00  -4.3997670322838654e-03 6.5914002055393536e-03 0.0000000000000000e+00  -5.1377317613835061e-03 7.2327141638349182e-03 0.0000000000000000e+00  -5.8636760119058001e-03 7.8774596767024838e-03 0.0000000000000000e+00  -6.5453450524002223e-03 8.5198932891946324e-03 0.0000000000000000e+00  -7.1427298851415681e-03 9.1538559159189594e-03 0.0000000000000000e+00  -7.6068522625721271e-03 9.7727870072725643e-03 0.0000000000000000e+00  -7.8783879773683292e-03 1.0369747587256098e-02 0.0000000000000000e+00  -7.8861053294745961e-03 1.0937453150338519e-02 0.0000000000000000e+00  -7.5450892803377041e-03 1.1468317272525794e-02 0.0000000000000000e+00  -6.7547128215551958e-03 1.1954506588291454e-02 0.0000000000000000e+00  -5.3963045277603166e-03 1.2388007493413417e-02 0.0000000000000000e+00  -3.3304437618360818e-03 1.2760704531720164e-02 0.0000000000000000e+00  -3.9379060578369592e-04 1.3064469879159079e-02 0.0000000000000000e+00  3.6046765256115307e-03 1.3291262600383541e-02 0.0000000000000000e+00  8.8881906702787464e-03 1.3433235328522829e-02 0.0000000000000000e+00  1.5717736933582829e-02 1.3482844519950195e-02 0.0000000000000000e+00  2.4398945936319551e-02 1.3432958070386591e-02 0.0000000000000000e+00  3.5290826566215058e-02 1.3276950104234131e-02 0.0000000000000000e+00  4.8817039860781029e-02 1.3008766153002270e-02 0.0000000000000000e+00  6.5480742318426211e-02 1.2622932990868229e-02 0.0000000000000000e+00  8.5884531352790117e-02 1.2114484234609047e-02 0.0000000000000000e+00  1.1075783299675761e-01 1.1478808804008126e-02 0.0000000000000000e+00  1.4099546610941638e-01 1.0711585832805950e-02 0.0000000000000000e+00  0.0000000000000000e+00 -2.5667673030957958e-04 0.0000000000000000e+00  1.7486526919377007e-04 -2.2790724409505112e-04 0.0000000000000000e+00  3.4071691120799775e-04 -1.4300434379835211e-04 0.0000000000000000e+00  4.8909117356696070e-04 -2.2627599885180444e-06 0.0000000000000000e+00  6.1180306572086545e-04 1.9377379270704205e-04 0.0000000000000000e+00  7.0085398672308289e-04 4.4436245838096639e-04 0.0000000000000000e+00  7.4854556595740538e-04 7.4854556595682197e-04 0.0000000000000000e+00  7.4763003165523095e-04 1.1051254482938584e-03 0.0000000000000000e+00  6.9146186583215607e-04 1.5126429285420573e-03 0.0000000000000000e+00  5.7416237336539852e-04 1.9693566976357411e-03 0.0000000000000000e+00  3.9080755581645131e-04 2.4732218233154296e-03 0.0000000000000000e+00  1.3764698176554069e-04 3.0218668879065324e-03 0.0000000000000000e+00  -1.8763965416443735e-04 3.6125698648922875e-03 0.0000000000000000e+00  -5.8564167456673269e-04 4.2422331301512775e-03 0.0000000000000000e+00  -1.0548653654332745e-03 4.9073581649920310e-03 0.0000000000000000e+00  -1.5913233887395780e-03 5.6040206280526831e-03 0.0000000000000000e+00  -2.1880578245757928e-03 6.3278465822993353e-03 0.0000000000000000e+00  -2.8345884637517621e-03 7.0739907702869979e-03 0.0000000000000000e+00  -3.5162773747806487e-03 7.8371179373628499e-03 0.0000000000000000e+00  -4.2136000766573580e-03 8.6113883043910724e-03 0.0000000000000000e+00  -4.9013127895825266e-03 9.3904483839980565e-03 0.0000000000000000e+00  -5.5475041014308090e-03 1.0167428411518324e-02 0.0000000000000000e+00  -6.1125178228999448e-03 1.0934947714603320e-02 0.0000000000000000e+00  -6.5477315932338520e-03 1.1685129366579620e-02 0.0000000000000000e+00  -6.7941726488413611e-03 1.2409625446377755e-02 0.0000000000000000e+00  -6.7809476846869467e-03 1.3099654151180539e-02 0.0000000000000000e+00  -6.4234573941739847e-03 1.3746049862365413e-02 0.0000000000000000e+00  -5.6213573503315368e-03 1.4339327034663844e-02 0.0000000000000000e+00  -4.2562144075956520e-03 1.4869758441662100e-02 0.0000000000000000e+00  -2.1887903902821941e-03 1.5327467841241893e-02 0.0000000000000000e+00  7.4413945418339879e-04 1.5702536484625832e-02 0.0000000000000000e+00  4.7335597418761395e-03 1.5985122029177155e-02 0.0000000000000000e+00  1.0002754335595266e-02 1.6165587244667809e-02 0.0000000000000000e+00  1.6812854222276248e-02 1.6234634299342361e-02 0.0000000000000000e+00  2.5469734297252685e-02 1.6183438200503237e-02 0.0000000000000000e+00  3.6332742979627769e-02 1.600377002