<?xml version="1.0"?>
<VTKFile type="UnstructuredGrid"  version="0.1"  >
<UnstructuredGrid>
<Piece  NumberOfPoints="1681" NumberOfCells="3200">
<Points>
<DataArray  type="Float64"  NumberOfComponents="3"  format="ascii">0 0 0  0.5 0 0  1 0 0  1.5 0 0  2 0 0  2.5 0 0  3 0 0  3.5 0 0  4 0 0  4.5 0 0  5 0 0  5.5 0 0  6 0 0  6.5 0 0  7 0 0  7.5 0 0  8 0 0  8.5 0 0  9 0 0  9.5 0 0  10 0 0  10.5 0 0  11 0 0  11.5 0 0  12 0 0  12.5 0 0  13 0 0  13.5 0 0  14 0 0  14.5 0 0  15 0 0  15.5 0 0  16 0 0  16.5 0 0  17 0 0  17.5 0 0  18 0 0  18.5 0 0  19 0 0  19.5 0 0  20 0 0  0 0.5 0  0.5 0.5 0  1 0.5 0  1.5 0.5 0  2 0.5 0  2.5 0.5 0  3 0.5 0  3.5 0.5 0  4 0.5 0  4.5 0.5 0  5 0.5 0  5.5 0.5 0  6 0.5 0  6.5 0.5 0  7 0.5 0  7.5 0.5 0  8 0.5 0  8.5 0.5 0  9 0.5 0  9.5 0.5 0  10 0.5 0  10.5 0.5 0  11 0.5 0  11.5 0.5 0  12 0.5 0  12.5 0.5 0  13 0.5 0  13.5 0.5 0  14 0.5 0  14.5 0.5 0  15 0.5 0  15.5 0.5 0  16 0.5 0  16.5 0.5 0  17 0.5 0  17.5 0.5 0  18 0.5 0  18.5 0.5 0  19 0.5 0  19.5 0.5 0  20 0.5 0  0 1 0  0.5 1 0  1 1 0  1.5 1 0  2 1 0  2.5 1 0  3 1 0  3.5 1 0  4 1 0  4.5 1 0  5 1 0  5.5 1 0  6 1 0  6.5 1 0  7 1 0  7.5 1 0  8 1 0  8.5 1 0  9 1 0  9.5 1 0  10 1 0  10.5 1 0  11 1 0  11.5 1 0  12 1 0  12.5 1 0  13 1 0  13.5 1 0  14 1 0  14.5 1 0  15 1 0  15.5 1 0  16 1 0  16.5 1 0  17 1 0  17.5 1 0  18 1 0  18.5 1 0  19 1 0  19.5 1 0  20 1 0  0 1.5 0  0.5 1.5 0  1 1.5 0  1.5 1.5 0  2 1.5 0  2.5 1.5 0  3 1.5 0  3.5 1.5 0  4 1.5 0  4.5 1.5 0  5 1.5 0  5.5 1.5 0  6 1.5 0  6.5 1.5 0  7 1.5 0  7.5 1.5 0  8 1.5 0  8.5 1.5 0  9 1.5 0  9.5 1.5 0  10 1.5 0  10.5 1.5 0  11 1.5 0  11.5 1.5 0  12 1.5 0  12.5 1.5 0  13 1.5 0  13.5 1.5 0  14 1.5 0  14.5 1.5 0  15 1.5 0  15.5 1.5 0  16 1.5 0  16.5 1.5 0  17 1.5 0  17.5 1.5 0  18 1.5 0  18.5 1.5 0  19 1.5 0  19.5 1.5 0  20 1.5 0  0 2 0  0.5 2 0  1 2 0  1.5 2 0  2 2 0  2.5 2 0  3 2 0  3.5 2 0  4 2 0  4.5 2 0  5 2 0  5.5 2 0  6 2 0  6.5 2 0  7 2 0  7.5 2 0  8 2 0  8.5 2 0  9 2 0  9.5 2 0  10 2 0  10.5 2 0  11 2 0  11.5 2 0  12 2 0  12.5 2 0  13 2 0  13.5 2 0  14 2 0  14.5 2 0  15 2 0  15.5 2 0  16 2 0  16.5 2 0  17 2 0  17.5 2 0  18 2 0  18.5 2 0  19 2 0  19.5 2 0  20 2 0  0 2.5 0  0.5 2.5 0  1 2.5 0  1.5 2.5 0  2 2.5 0  2.5 2.5 0  3 2.5 0  3.5 2.5 0  4 2.5 0  4.5 2.5 0  5 2.5 0  5.5 2.5 0  6 2.5 0  6.5 2.5 0  7 2.5 0  7.5 2.5 0  8 2.5 0  8.5 2.5 0  9 2.5 0  9.5 2.5 0  10 2.5 0  10.5 2.5 0  11 2.5 0  11.5 2.5 0  12 2.5 0  12.5 2.5 0  13 2.5 0  13.5 2.5 0  14 2.5 0  14.5 2.5 0  15 2.5 0  15.5 2.5 0  16 2.5 0  16.5 2.5 0  17 2.5 0  17.5 2.5 0  18 2.5 0  18.5 2.5 0  19 2.5 0  19.5 2.5 0  20 2.5 0  0 3 0  0.5 3 0  1 3 0  1.5 3 0  2 3 0  2.5 3 0  3 3 0  3.5 3 0  4 3 0  4.5 3 0  5 3 0  5.5 3 0  6 3 0  6.5 3 0  7 3 0  7.5 3 0  8 3 0  8.5 3 0  9 3 0  9.5 3 0  10 3 0  10.5 3 0  11 3 0  11.5 3 0  12 3 0  12.5 3 0  13 3 0  13.5 3 0  14 3 0  14.5 3 0  15 3 0  15.5 3 0  16 3 0  16.5 3 0  17 3 0  17.5 3 0  18 3 0  18.5 3 0  19 3 0  19.5 3 0  20 3 0  0 3.5 0  0.5 3.5 0  1 3.5 0  1.5 3.5 0  2 3.5 0  2.5 3.5 0  3 3.5 0  3.5 3.5 0  4 3.5 0  4.5 3.5 0  5 3.5 0  5.5 3.5 0  6 3.5 0  6.5 3.5 0  7 3.5 0  7.5 3.5 0  8 3.5 0  8.5 3.5 0  9 3.5 0  9.5 3.5 0  10 3.5 0  10.5 3.5 0  11 3.5 0  11.5 3.5 0  12 3.5 0  12.5 3.5 0  13 3.5 0  13.5 3.5 0  14 3.5 0  14.5 3.5 0  15 3.5 0  15.5 3.5 0  16 3.5 0  16.5 3.5 0  17 3.5 0  17.5 3.5 0  18 3.5 0  18.5 3.5 0  19 3.5 0  19.5 3.5 0  20 3.5 0  0 4 0  0.5 4 0  1 4 0  1.5 4 0  2 4 0  2.5 4 0  3 4 0  3.5 4 0  4 4 0  4.5 4 0  5 4 0  5.5 4 0  6 4 0  6.5 4 0  7 4 0  7.5 4 0  8 4 0  8.5 4 0  9 4 0  9.5 4 0  10 4 0  10.5 4 0  11 4 0  11.5 4 0  12 4 0  12.5 4 0  13 4 0  13.5 4 0  14 4 0  14.5 4 0  15 4 0  15.5 4 0  16 4 0  16.5 4 0  17 4 0  17.5 4 0  18 4 0  18.5 4 0  19 4 0  19.5 4 0  20 4 0  0 4.5 0  0.5 4.5 0  1 4.5 0  1.5 4.5 0  2 4.5 0  2.5 4.5 0  3 4.5 0  3.5 4.5 0  4 4.5 0  4.5 4.5 0  5 4.5 0  5.5 4.5 0  6 4.5 0  6.5 4.5 0  7 4.5 0  7.5 4.5 0  8 4.5 0  8.5 4.5 0  9 4.5 0  9.5 4.5 0  10 4.5 0  10.5 4.5 0  11 4.5 0  11.5 4.5 0  12 4.5 0  12.5 4.5 0  13 4.5 0  13.5 4.5 0  14 4.5 0  14.5 4.5 0  15 4.5 0  15.5 4.5 0  16 4.5 0  16.5 4.5 0  17 4.5 0  17.5 4.5 0  18 4.5 0  18.5 4.5 0  19 4.5 0  19.5 4.5 0  20 4.5 0  0 5 0  0.5 5 0  1 5 0  1.5 5 0  2 5 0  2.5 5 0  3 5 0  3.5 5 0  4 5 0  4.5 5 0  5 5 0  5.5 5 0  6 5 0  6.5 5 0  7 5 0  7.5 5 0  8 5 0  8.5 5 0  9 5 0  9.5 5 0  10 5 0  10.5 5 0  11 5 0  11.5 5 0  12 5 0  12.5 5 0  13 5 0  13.5 5 0  14 5 0  14.5 5 0  15 5 0  15.5 5 0  16 5 0  16.5 5 0  17 5 0  17.5 5 0  18 5 0  18.5 5 0  19 5 0  19.5 5 0  20 5 0  0 5.5 0  0.5 5.5 0  1 5.5 0  1.5 5.5 0  2 5.5 0  2.5 5.5 0  3 5.5 0  3.5 5.5 0  4 5.5 0  4.5 5.5 0  5 5.5 0  5.5 5.5 0  6 5.5 0  6.5 5.5 0  7 5.5 0  7.5 5.5 0  8 5.5 0  8.5 5.5 0  9 5.5 0  9.5 5.5 0  10 5.5 0  10.5 5.5 0  11 5.5 0  11.5 5.5 0  12 5.5 0  12.5 5.5 0  13 5.5 0  13.5 5.5 0  14 5.5 0  14.5 5.5 0  15 5.5 0  15.5 5.5 0  16 5.5 0  16.5 5.5 0  17 5.5 0  17.5 5.5 0  18 5.5 0  18.5 5.5 0  19 5.5 0  19.5 5.5 0  20 5.5 0  0 6 0  0.5 6 0  1 6 0  1.5 6 0  2 6 0  2.5 6 0  3 6 0  3.5 6 0  4 6 0  4.5 6 0  5 6 0  5.5 6 0  6 6 0  6.5 6 0  7 6 0  7.5 6 0  8 6 0  8.5 6 0  9 6 0  9.5 6 0  10 6 0  10.5 6 0  11 6 0  11.5 6 0  12 6 0  12.5 6 0  13 6 0  13.5 6 0  14 6 0  14.5 6 0  15 6 0  15.5 6 0  16 6 0  16.5 6 0  17 6 0  17.5 6 0  18 6 0  18.5 6 0  19 6 0  19.5 6 0  20 6 0  0 6.5 0  0.5 6.5 0  1 6.5 0  1.5 6.5 0  2 6.5 0  2.5 6.5 0  3 6.5 0  3.5 6.5 0  4 6.5 0  4.5 6.5 0  5 6.5 0  5.5 6.5 0  6 6.5 0  6.5 6.5 0  7 6.5 0  7.5 6.5 0  8 6.5 0  8.5 6.5 0  9 6.5 0  9.5 6.5 0  10 6.5 0  10.5 6.5 0  11 6.5 0  11.5 6.5 0  12 6.5 0  12.5 6.5 0  13 6.5 0  13.5 6.5 0  14 6.5 0  14.5 6.5 0  15 6.5 0  15.5 6.5 0  16 6.5 0  16.5 6.5 0  17 6.5 0  17.5 6.5 0  18 6.5 0  18.5 6.5 0  19 6.5 0  19.5 6.5 0  20 6.5 0  0 7 0  0.5 7 0  1 7 0  1.5 7 0  2 7 0  2.5 7 0  3 7 0  3.5 7 0  4 7 0  4.5 7 0  5 7 0  5.5 7 0  6 7 0  6.5 7 0  7 7 0  7.5 7 0  8 7 0  8.5 7 0  9 7 0  9.5 7 0  10 7 0  10.5 7 0  11 7 0  11.5 7 0  12 7 0  12.5 7 0  13 7 0  13.5 7 0  14 7 0  14.5 7 0  15 7 0  15.5 7 0  16 7 0  16.5 7 0  17 7 0  17.5 7 0  18 7 0  18.5 7 0  19 7 0  19.5 7 0  20 7 0  0 7.5 0  0.5 7.5 0  1 7.5 0  1.5 7.5 0  2 7.5 0  2.5 7.5 0  3 7.5 0  3.5 7.5 0  4 7.5 0  4.5 7.5 0  5 7.5 0  5.5 7.5 0  6 7.5 0  6.5 7.5 0  7 7.5 0  7.5 7.5 0  8 7.5 0  8.5 7.5 0  9 7.5 0  9.5 7.5 0  10 7.5 0  10.5 7.5 0  11 7.5 0  11.5 7.5 0  12 7.5 0  12.5 7.5 0  13 7.5 0  13.5 7.5 0  14 7.5 0  14.5 7.5 0  15 7.5 0  15.5 7.5 0  16 7.5 0  16.5 7.5 0  17 7.5 0  17.5 7.5 0  18 7.5 0  18.5 7.5 0  19 7.5 0  19.5 7.5 0  20 7.5 0  0 8 0  0.5 8 0  1 8 0  1.5 8 0  2 8 0  2.5 8 0  3 8 0  3.5 8 0  4 8 0  4.5 8 0  5 8 0  5.5 8 0  6 8 0  6.5 8 0  7 8 0  7.5 8 0  8 8 0  8.5 8 0  9 8 0  9.5 8 0  10 8 0  10.5 8 0  11 8 0  11.5 8 0  12 8 0  12.5 8 0  13 8 0  13.5 8 0  14 8 0  14.5 8 0  15 8 0  15.5 8 0  16 8 0  16.5 8 0  17 8 0  17.5 8 0  18 8 0  18.5 8 0  19 8 0  19.5 8 0  20 8 0  0 8.5 0  0.5 8.5 0  1 8.5 0  1.5 8.5 0  2 8.5 0  2.5 8.5 0  3 8.5 0  3.5 8.5 0  4 8.5 0  4.5 8.5 0  5 8.5 0  5.5 8.5 0  6 8.5 0  6.5 8.5 0  7 8.5 0  7.5 8.5 0  8 8.5 0  8.5 8.5 0  9 8.5 0  9.5 8.5 0  10 8.5 0  10.5 8.5 0  11 8.5 0  11.5 8.5 0  12 8.5 0  12.5 8.5 0  13 8.5 0  13.5 8.5 0  14 8.5 0  14.5 8.5 0  15 8.5 0  15.5 8.5 0  16 8.5 0  16.5 8.5 0  17 8.5 0  17.5 8.5 0  18 8.5 0  18.5 8.5 0  19 8.5 0  19.5 8.5 0  20 8.5 0  0 9 0  0.5 9 0  1 9 0  1.5 9 0  2 9 0  2.5 9 0  3 9 0  3.5 9 0  4 9 0  4.5 9 0  5 9 0  5.5 9 0  6 9 0  6.5 9 0  7 9 0  7.5 9 0  8 9 0  8.5 9 0  9 9 0  9.5 9 0  10 9 0  10.5 9 0  11 9 0  11.5 9 0  12 9 0  12.5 9 0  13 9 0  13.5 9 0  14 9 0  14.5 9 0  15 9 0  15.5 9 0  16 9 0  16.5 9 0  17 9 0  17.5 9 0  18 9 0  18.5 9 0  19 9 0  19.5 9 0  20 9 0  0 9.5 0  0.5 9.5 0  1 9.5 0  1.5 9.5 0  2 9.5 0  2.5 9.5 0  3 9.5 0  3.5 9.5 0  4 9.5 0  4.5 9.5 0  5 9.5 0  5.5 9.5 0  6 9.5 0  6.5 9.5 0  7 9.5 0  7.5 9.5 0  8 9.5 0  8.5 9.5 0  9 9.5 0  9.5 9.5 0  10 9.5 0  10.5 9.5 0  11 9.5 0  11.5 9.5 0  12 9.5 0  12.5 9.5 0  13 9.5 0  13.5 9.5 0  14 9.5 0  14.5 9.5 0  15 9.5 0  15.5 9.5 0  16 9.5 0  16.5 9.5 0  17 9.5 0  17.5 9.5 0  18 9.5 0  18.5 9.5 0  19 9.5 0  19.5 9.5 0  20 9.5 0  0 10 0  0.5 10 0  1 10 0  1.5 10 0  2 10 0  2.5 10 0  3 10 0  3.5 10 0  4 10 0  4.5 10 0  5 10 0  5.5 10 0  6 10 0  6.5 10 0  7 10 0  7.5 10 0  8 10 0  8.5 10 0  9 10 0  9.5 10 0  10 10 0  10.5 10 0  11 10 0  11.5 10 0  12 10 0  12.5 10 0  13 10 0  13.5 10 0  14 10 0  14.5 10 0  15 10 0  15.5 10 0  16 10 0  16.5 10 0  17 10 0  17.5 10 0  18 10 0  18.5 10 0  19 10 0  19.5 10 0  20 10 0  0 10.5 0  0.5 10.5 0  1 10.5 0  1.5 10.5 0  2 10.5 0  2.5 10.5 0  3 10.5 0  3.5 10.5 0  4 10.5 0  4.5 10.5 0  5 10.5 0  5.5 10.5 0  6 10.5 0  6.5 10.5 0  7 10.5 0  7.5 10.5 0  8 10.5 0  8.5 10.5 0  9 10.5 0  9.5 10.5 0  10 10.5 0  10.5 10.5 0  11 10.5 0  11.5 10.5 0  12 10.5 0  12.5 10.5 0  13 10.5 0  13.5 10.5 0  14 10.5 0  14.5 10.5 0  15 10.5 0  15.5 10.5 0  16 10.5 0  16.5 10.5 0  17 10.5 0  17.5 10.5 0  18 10.5 0  18.5 10.5 0  19 10.5 0  19.5 10.5 0  20 10.5 0  0 11 0  0.5 11 0  1 11 0  1.5 11 0  2 11 0  2.5 11 0  3 11 0  3.5 11 0  4 11 0  4.5 11 0  5 11 0  5.5 11 0  6 11 0  6.5 11 0  7 11 0  7.5 11 0  8 11 0  8.5 11 0  9 11 0  9.5 11 0  10 11 0  10.5 11 0  11 11 0  11.5 11 0  12 11 0  12.5 11 0  13 11 0  13.5 11 0  14 11 0  14.5 11 0  15 11 0  15.5 11 0  16 11 0  16.5 11 0  17 11 0  17.5 11 0  18 11 0  18.5 11 0  19 11 0  19.5 11 0  20 11 0  0 11.5 0  0.5 11.5 0  1 11.5 0  1.5 11.5 0  2 11.5 0  2.5 11.5 0  3 11.5 0  3.5 11.5 0  4 11.5 0  4.5 11.5 0  5 11.5 0  5.5 11.5 0  6 11.5 0  6.5 11.5 0  7 11.5 0  7.5 11.5 0  8 11.5 0  8.5 11.5 0  9 11.5 0  9.5 11.5 0  10 11.5 0  10.5 11.5 0  11 11.5 0  11.5 11.5 0  12 11.5 0  12.5 11.5 0  13 11.5 0  13.5 11.5 0  14 11.5 0  14.5 11.5 0  15 11.5 0  15.5 11.5 0  16 11.5 0  16.5 11.5 0  17 11.5 0  17.5 11.5 0  18 11.5 0  18.5 11.5 0  19 11.5 0  19.5 11.5 0  20 11.5 0  0 12 0  0.5 12 0  1 12 0  1.5 12 0  2 12 0  2.5 12 0  3 12 0  3.5 12 0  4 12 0  4.5 12 0  5 12 0  5.5 12 0  6 12 0  6.5 12 0  7 12 0  7.5 12 0  8 12 0  8.5 12 0  9 12 0  9.5 12 0  10 12 0  10.5 12 0  11 12 0  11.5 12 0  12 12 0  12.5 12 0  13 12 0  13.5 12 0  14 12 0  14.5 12 0  
[...]
<PointData  Vectors="f_2975-0"> 
<DataArray  type="Float64"  Name="f_2975-0"  NumberOfComponents="3" format="ascii">0.0000000000000000e+00 0.0000000000000000e+00 0.0000000000000000e+00  -7.2963658617148660e-07 0.0000000000000000e+00 0.0000000000000000e+00  -3.2740617161464183e-06 0.0000000000000000e+00 0.0000000000000000e+00  -1.0199980720863496e-05 0.0000000000000000e+00 0.0000000000000000e+00  -2.3692045200641545e-05 0.0000000000000000e+00 0.0000000000000000e+00  -4.5883038277554575e-05 0.0000000000000000e+00 0.0000000000000000e+00  -7.8866095520249601e-05 0.0000000000000000e+00 0.0000000000000000e+00  -1.2468274581706599e-04 0.0000000000000000e+00 0.0000000000000000e+00  -1.8530884694648446e-04 0.0000000000000000e+00 0.0000000000000000e+00  -2.6263902309252161e-04 0.0000000000000000e+00 0.0000000000000000e+00  -3.5846884543398771e-04 0.0000000000000000e+00 0.0000000000000000e+00  -4.7447388146592043e-04 0.0000000000000000e+00 0.0000000000000000e+00  -6.1218451659474690e-04 0.0000000000000000e+00 0.0000000000000000e+00  -7.7295507252727344e-04 0.0000000000000000e+00 0.0000000000000000e+00  -9.5792519813259192e-04 0.0000000000000000e+00 0.0000000000000000e+00  -1.1679707497348549e-03 0.0000000000000000e+00 0.0000000000000000e+00  -1.4036403489823127e-03 0.0000000000000000e+00 0.0000000000000000e+00  -1.6650724353279649e-03 0.0000000000000000e+00 0.0000000000000000e+00  -1.9518858338122211e-03 0.0000000000000000e+00 0.0000000000000000e+00  -2.2630345493399326e-03 0.0000000000000000e+00 0.0000000000000000e+00  -2.5966145907757904e-03 0.0000000000000000e+00 0.0000000000000000e+00  -2.9496070519271179e-03 0.0000000000000000e+00 0.0000000000000000e+00  -3.3175373947865608e-03 0.0000000000000000e+00 0.0000000000000000e+00  -3.6940259111582926e-03 0.0000000000000000e+00 0.0000000000000000e+00  -4.0701987792303371e-03 0.0000000000000000e+00 0.0000000000000000e+00  -4.4339231810705182e-03 0.0000000000000000e+00 0.0000000000000000e+00  -4.7688239168557148e-03 0.0000000000000000e+00 0.0000000000000000e+00  -5.0530332535357993e-03 0.0000000000000000e+00 0.0000000000000000e+00  -5.2576208370579518e-03 0.0000000000000000e+00 0.0000000000000000e+00  -5.3446467718047588e-03 0.0000000000000000e+00 0.0000000000000000e+00  -5.2647785712608575e-03 0.0000000000000000e+00 0.0000000000000000e+00  -4.9544112341203001e-03 0.0000000000000000e+00 0.0000000000000000e+00  -4.3322279567662601e-03 0.0000000000000000e+00 0.0000000000000000e+00  -3.2951344213601481e-03 0.0000000000000000e+00 0.0000000000000000e+00  -1.7134878606927804e-03 0.0000000000000000e+00 0.0000000000000000e+00  5.7448370294332777e-04 0.0000000000000000e+00 0.0000000000000000e+00  3.7692276992081124e-03 0.0000000000000000e+00 0.0000000000000000e+00  8.1176323676060407e-03 0.0000000000000000e+00 0.0000000000000000e+00  1.3922474109187913e-02 0.0000000000000000e+00 0.0000000000000000e+00  2.1554654227815398e-02 0.0000000000000000e+00 0.0000000000000000e+00  3.1472483516250725e-02 0.0000000000000000e+00 0.0000000000000000e+00  0.0000000000000000e+00 -7.2963659082270312e-07 0.0000000000000000e+00  7.2090929322707216e-07 7.2090929427820034e-07 0.0000000000000000e+00  -8.3612459466952765e-07 4.1957050553749600e-06 0.0000000000000000e+00  -6.7181946290091617e-06 9.7237614065476118e-06 0.0000000000000000e+00  -1.9131480009550591e-05 1.7364592141823047e-05 0.0000000000000000e+00  -4.0231299024923944e-05 2.7119220474429368e-05 0.0000000000000000e+00  -7.2120076557086172e-05 3.8955853983239845e-05 0.0000000000000000e+00  -1.1684358168553971e-04 5.2824029308644298e-05 0.0000000000000000e+00  -1.7638042056705404e-04 6.8659210760841730e-05 0.0000000000000000e+00  -2.5262774612263363e-04 8.6383700267954249e-05 0.0000000000000000e+00  -3.4738392139817254e-04 1.0590628153705991e-04 0.0000000000000000e+00  -4.6232777789753573e-04 1.2712142531460632e-04 0.0000000000000000e+00  -5.9899353978486712e-04 1.4990833867333154e-04 0.0000000000000000e+00  -7.5873999400981275e-04 1.7412997237520705e-04 0.0000000000000000e+00  -9.4271190119954765e-04 1.9963205126874166e-04 0.0000000000000000e+00  -1.1517908699476944e-03 2.2624218061010828e-04 0.0000000000000000e+00  -1.3865318829878847e-03 2.5376908135305720e-04 0.0000000000000000e+00  -1.6470802902248454e-03 2.8200201163894393e-04 0.0000000000000000e+00  -1.9330622859753872e-03 3.1071043764296653e-04 0.0000000000000000e+00  -2.2434395778972139e-03 3.3964402277131462e-04 0.0000000000000000e+00  -2.5763160473296102e-03 3.6853300941672927e-04 0.0000000000000000e+00  -2.9286806253548928e-03 3.9708907084670713e-04 0.0000000000000000e+00  -3.2960663286825081e-03 4.2500671129651422e-04 0.0000000000000000e+00  -3.6721004322018643e-03 4.5196528798164301e-04 0.0000000000000000e+00  -4.0479151981390911e-03 4.7763171731918854e-04 0.0000000000000000e+00  -4.4113826335689492e-03 5.0166390715936766e-04 0.0000000000000000e+00  -4.7461307191105371e-03 5.2371492386057733e-04 0.0000000000000000e+00  -5.0302928512064200e-03 5.4343785578837183e-04 0.0000000000000000e+00  -5.2349373237531782e-03 5.6049127276831508e-04 0.0000000000000000e+00  -5.3221199313965798e-03 5.7454510572484336e-04 0.0000000000000000e+00  -5.2425003464390664e-03 5.8528668947608947e-04 0.0000000000000000e+00  -4.9324614277362023e-03 5.9242663526704910e-04 0.0000000000000000e+00  -4.3106688276609616e-03 5.9570414441335786e-04 0.0000000000000000e+00  -3.2740036702845737e-03 5.9489135025605317e-04 0.0000000000000000e+00  -1.6927894496061215e-03 5.8979626904410792e-04 0.0000000000000000e+00  5.9479087515163171e-04 5.8026385937038542e-04 0.0000000000000000e+00  3.7892399435881761e-03 5.6617422301519888e-04 0.0000000000000000e+00  8.1374911289236063e-03 5.4743504880747377e-04 0.0000000000000000e+00  1.3942233180101939e-02 5.2395742454229403e-04 0.0000000000000000e+00  2.1573381547609235e-02 4.9556716109046555e-04 0.0000000000000000e+00  3.1482004946021082e-02 4.6161066419821769e-04 0.0000000000000000e+00  0.0000000000000000e+00 -3.2740617180858209e-06 0.0000000000000000e+00  4.1957050555105454e-06 -8.3612459211735523e-07 0.0000000000000000e+00  5.9572103222311657e-06 5.9572103213250209e-06 0.0000000000000000e+00  3.3475833090147857e-06 1.7031809241248349e-05 0.0000000000000000e+00  -5.7948550712041031e-06 3.2367644956852279e-05 0.0000000000000000e+00  -2.3617840382675861e-05 5.1923642058671987e-05 0.0000000000000000e+00  -5.2227393675097580e-05 7.5631155709544428e-05 0.0000000000000000e+00  -9.3675011277590488e-05 1.0339323850508803e-04 0.0000000000000000e+00  -1.4994557581244402e-04 1.3508542212070030e-04 0.0000000000000000e+00  -2.2294322073606075e-04 1.7055597180559392e-04 0.0000000000000000e+00  -3.1447438140461489e-04 2.0962526560679490e-04 0.0000000000000000e+00  -4.2622737462819256e-04 2.5208451786485660e-04 0.0000000000000000e+00  -5.5974754461586822e-04 2.9769411828947179e-04 0.0000000000000000e+00  -7.1640656821892021e-04 3.4618179666090514e-04 0.0000000000000000e+00  -8.9736392613336410e-04 3.9724077091945738e-04 0.0000000000000000e+00  -1.1035177668334041e-03 4.5052800919794732e-04 0.0000000000000000e+00  -1.3354413499176568e-03 5.0566272773825641e-04 0.0000000000000000e+00  -1.5932998778552840e-03 5.6222524856682345e-04 0.0000000000000000e+00  -1.8767407255070839e-03 6.1975634782877919e-04 0.0000000000000000e+00  -2.1847477660904028e-03 6.7775723425447549e-04 0.0000000000000000e+00  -2.5154475850292183e-03 7.3569030510589562e-04 0.0000000000000000e+00  -2.8658517998741912e-03 7.9298083132800534e-04 0.0000000000000000e+00  -3.2315154277075906e-03 8.4901972258268532e-04 0.0000000000000000e+00  -3.6060862799487674e-03 9.0316751267653888e-04 0.0000000000000000e+00  -3.9807148148688579e-03 9.5475968387101376e-04 0.0000000000000000e+00  -4.3432879392564109e-03 1.0031134101194557e-03 0.0000000000000000e+00  -4.6774442315788978e-03 1.0475357412747595e-03 0.0000000000000000e+00  -4.9613223677777768e-03 1.0873331690392897e-03 0.0000000000000000e+00  -5.1659896200898607e-03 1.1218224109112811e-03 0.0000000000000000e+00  -5.2534935553628266e-03 1.1503421218984867e-03 0.0000000000000000e+00  -5.1744776207523586e-03 1.1722651027399529e-03 0.0000000000000000e+00  -4.8652997978654560e-03 1.1870104257876259e-03 0.0000000000000000e+00  -4.2445917123521918e-03 1.1940547502843661e-03 0.0000000000000000e+00  -3.2091910515193310e-03 1.1929419235403012e-03 0.0000000000000000e+00  -1.6293687692739392e-03 1.1832896556740382e-03 0.0000000000000000e+00  6.5675181205996724e-04 1.1647912610582491e-03 0.0000000000000000e+00  3.8497328515183886e-03 1.1372080985315187e-03 0.0000000000000000e+00  8.1965442313916888e-03 1.1003409982270078e-03 0.0000000000000000e+00  1.3999819656161240e-02 1.0539456604360671e-03 0.0000000000000000e+00  2.1629153917610049e-02 9.9748437580000947e-04 0.0000000000000000e+00  3.1535060516479363e-02 9.2939642562341388e-04 0.0000000000000000e+00  0.0000000000000000e+00 -1.0199980725751533e-05 0.0000000000000000e+00  9.7237614094606598e-06 -6.7181946287017057e-06 0.0000000000000000e+00  1.7031809243182441e-05 3.3475833027135873e-06 0.0000000000000000e+00  1.9914327767605821e-05 1.9914327763663486e-05 0.0000000000000000e+00  1.6246372761371812e-05 4.2916149521869238e-05 0.0000000000000000e+00  3.8911100550138554e-06 7.2269435099800653e-05 0.0000000000000000e+00  -1.9256140370963141e-05 1.0785902484824535e-04 0.0000000000000000e+00  -5.5250621318078869e-05 1.4953503920004741e-04 0.0000000000000000e+00  -1.0608432007326938e-04 1.9711095300655658e-04 0.0000000000000000e+00  -1.7367120712640343e-04 2.5036159156543693e-04 0.0000000000000000e+00  -2.5983018704630993e-04 3.0902088931812865e-04 0.0000000000000000e+00  -3.6626478308810379e-04 3.7277938308887557e-04 0.0000000000000000e+00  -4.9453843516215543e-04 4.4128148842718880e-04 0.0000000000000000e+00  -6.4604392862074769e-04 5.1412266361169478e-04 0.0000000000000000e+00  -8.2196492248969933e-04 5.9084659735872153e-04 0.0000000000000000e+00  -1.0232267811985881e-03 6.7094257458263668e-04 0.0000000000000000e+00  -1.2504328791514659e-03 7.5384318812472264e-04 0.0000000000000000e+00  -1.5037811712962160e-03 8.3892257760726202e-04 0.0000000000000000e+00  -1.7829540235285578e-03 9.2549539061150259e-04 0.0000000000000000e+00  -2.0869719868953280e-03 1.0128166747375264e-03 0.0000000000000000e+00  -2.4139992945186343e-03 1.1000829197752682e-03 0.0000000000000000e+00  -2.7610852905086219e-03 1.1864344747880978e-03 0.0000000000000000e+00  -3.1238217299284269e-03 1.2709595616911243e-03 0.0000000000000000e+00  -3.4958909362291005e-03 1.3527000912644960e-03 0.0000000000000000e+00  -3.8684742652437994e-03 1.4306594548403749e-03 0.0000000000000000e+00  -4.2294844007381132e-03 1.5038124099676364e-03 0.0000000000000000e+00  -4.5625790043564820e-03 1.5711170969124005e-03 0.0000000000000000e+00  -4.8459075688451437e-03 1.6315291094398424e-03 0.0000000000000000e+00  -5.0505384275153654e-03 1.6840173970429410e-03 0.0000000000000000e+00  -5.1385091395358988e-03 1.7275815940922907e-03 0.0000000000000000e+00  -5.0604410369779257e-03 1.7612701570937142e-03 0.0000000000000000e+00  -4.7526572180022842e-03 1.7841984407162242e-03 0.0000000000000000e+00  -4.1337415032559324e-03 1.7955655389816231e-03 0.0000000000000000e+00  -3.1004714407987014e-03 1.7946682900846526e-03 0.0000000000000000e+00  -1.5230473797519339e-03 1.7809100931389843e-03 0.0000000000000000e+00  7.6048391883554352e-04 1.7538006029172467e-03 0.0000000000000000e+00  3.9507565674477656e-03 1.7129387475358982e-03 0.0000000000000000e+00  8.2947827816934310e-03 1.6579632840271691e-03 0.0000000000000000e+00  1.4095150412195808e-02 1.5884382588136716e-03 0.0000000000000000e+00  2.1721196445290782e-02 1.5036167965939958e-03 0.0000000000000000e+00  3.1622776366257946e-02 1.4020463914506910e-03 0.0000000000000000e+00  0.0000000000000000e+00 -2.3692045205337218e-05 0.0000000000000000e+00  1.7364592140972758e-05 -1.9131480010480918e-05 0.0000000000000000e+00  3.2367644957991172e-05 -5.7948550738141217e-06 0.0000000000000000e+00  4.2916149518432507e-05 1.6246372759961847e-05 0.0000000000000000e+00  4.6897118840918634e-05 4.6897118845528703e-05 0.0000000000000000e+00  4.2181744961606056e-05 8.6037279554870304e-05 0.0000000000000000e+00  2.6665908728700263e-05 1.3350874087156132e-04 0.0000000000000000e+00  -1.7100689389515764e-06 1.8911034850693502e-04 0.0000000000000000e+00  -4.4946659161399318e-05 2.5259458645697654e-04 0.0000000000000000e+00  -1.0497018228043680e-04 3.2366432730958664e-04 0.0000000000000000e+00  -1.8361582234254135e-04 4.0196931026296128e-04 0.0000000000000000e+00  -2.8260745822392342e-04 4.8710235175542909e-04 0.0000000000000000e+00  -4.0353311934553061e-04 5.7859537747241487e-04 0.0000000000000000e+00  -5.4781453533772639e-04 6.7591539583537882e-04 0.0000000000000000e+00  -7.1666871031540649e-04 7.7846055999919884e-04 0.0000000000000000e+00  -9.1105869396592744e-04 8.8555649327261851e-04 0.0000000000000000e+00  -1.1316296906700950e-03 9.9645308013683554e-04 0.0000000000000000e+00  -1.3786252738450342e-03 1.1103219511220479e-03 0.0000000000000000e+00  -1.6517766754825987e-03 1.2262549139257510e-03 0.0000000000000000e+00  -1.9501558131971377e-03 1.3432636044016209e-03 0.0000000000000000e+00  -2.2719798160331481e-03 1.4602806464772144e-03 0.0000000000000000e+00  -2.6143512465147314e-03 1.5761626186004763e-03 0.0000000000000000e+00  -2.9729139554776443e-03 1.6896951199037900e-03 0.0000000000000000e+00  -3.3413995659538906e-03 1.7996002093672062e-03 0.0000000000000000e+00  -3.7110340618801731e-03 1.9045464488866377e-03 0.0000000000000000e+00  -4.0697680533866238e-03 2.0031617109150641e-03 0.0000000000000000e+00  -4.4012883120507097e-03 2.0940488070653475e-03 0.0000000000000000e+00  -4.6837625202734582e-03 2.1758038491500238e-03 0.0000000000000000e+00  -4.8882643078197808e-03 2.2470370646584257e-03 0.0000000000000000e+00  -4.9768219373961774e-03 2.3063955492632492e-03 0.0000000000000000e+00  -4.9000315885539278e-03 2.3525871466529365e-03 0.0000000000000000e+00  -4.5941747166974144e-03 2.3844042895394719e-03 0.0000000000000000e+00  -3.9777772590519822e-03 2.4007461888602682e-03 0.0000000000000000e+00  -2.9475441864156102e-03 2.4006371453263366e-03 0.0000000000000000e+00  -1.3735922162967055e-03 2.3832378110218576e-03 0.0000000000000000e+00  9.0611919541128236e-04 2.3478446191628516e-03 0.0000000000000000e+00  4.0923006379682426e-03 2.2938698532059768e-03 0.0000000000000000e+00  8.4320020514961919e-03 2.2207908357926194e-03 0.0000000000000000e+00  1.4227760380263334e-02 2.1280542653819134e-03 0.0000000000000000e+00  2.1848705162316268e-02 2.0149350317785510e-03 0.0000000000000000e+00  3.1744327628265609e-02 1.8804240823721108e-03 0.0000000000000000e+00  0.0000000000000000e+00 -4.5883038281856127e-05 0.0000000000000000e+00  2.7119220471593766e-05 -4.0231299027221971e-05 0.0000000000000000e+00  5.1923642058170998e-05 -2.3617840383503774e-05 0.0000000000000000e+00  7.2269435094563712e-05 3.8911100552704462e-06 0.0000000000000000e+00  8.6037279555545328e-05 4.2181744966685231e-05 0.0000000000000000e+00  9.1102565497084241e-05 9.1102565499050022e-05 0.0000000000000000e+00  8.5360677729786960e-05 1.5045638694186962e-04 0.0000000000000000e+00  6.6746449649820661e-05 2.1999442686355212e-04 0.0000000000000000e+00  3.3249235584179605e-05 2.9941182118031962e-04 0.0000000000000000e+00  -1.7072194593504981e-05 3.8834325027991797e-04 0.0000000000000000e+00  -8.6072912332748328e-05 4.8635827700881855e-04 0.0000000000000000e+00  -1.7550195043187071e-04 5.9295636391886147e-04 0.0000000000000000e+00  -2.8697801729908037e-04 7.0756166445767280e-04 0.0000000000000000e+00  -4.2195923131838699e-04 8.2951773631655156e-04 0.0000000000000000e+00  -5.8170477266836576e-04 9.5808235935446108e-04 0.0000000000000000e+00  -7.6722559368166238e-04 1.0924226714081851e-03 0.0000000000000000e+00  -9.7922029750092325e-04 1.2316108678925210e-03 0.0000000000000000e+00  -1.2179909212368684e-03 1.3746207432627181e-03 0.0000000000000000e+00  -1.4833315631307415e-03 1.5203253844251136e-03 0.0000000000000000e+00  -1.7743804884465624e-03 1.6674963543057385e-03 0.0000000000000000e+00  -2.0894234521632265e-03 1.8148047254010074e-03 0.0000000000000000e+00  -2.4256324208884678e-03 1.9608243354485100e-03 0.0000000000000000e+00  -2.7787196266332850e-03 2.1040376342113605e-03 0.0000000000000000e+00  -3.1424819610474789e-03 2.2428444678445334e-03 0.0000000000000000e+00  -3.5082052187935964e-03 2.3755740977199533e-03 0.0000000000000000e+00  -3.8638918208410413e-03 2.5005006673535809e-03 0.0000000000000000e+00  -4.1932696999802833e-03 2.6158622063448458e-03 0.0000000000000000e+00  -4.4745344151801668e-03 2.7198830863955077e-03 0.0000000000000000e+00  -4.6787717249261365e-03 2.8107996147723941e-03 0.0000000000000000e+00  -4.7680041735777634e-03 2.8868881580971818e-03 0.0000000000000000e+00  -4.6928028688076068e-03 2.9464948292915539e-03 0.0000000000000000e+00  -4.3894042024447541e-03 2.9880653333041862e-03 0.0000000000000000e+00  -3.7762696427539868e-03 3.0101730384081930e-03 0.0000000000000000e+00  -2.7500226140502390e-03 3.0115426859956725e-03 0.0000000000000000e+00  -1.1806861136009047e-03 2.9910663236890588e-03 0.0000000000000000e+00  1.0938774394342249e-03 2.9478070221702003e-03 0.0000000000000000e+00  4.2744641442844936e-03 2.8809849430844864e-03 0.0000000000000000e+00  8.6081752746472763e-03 2.7899405374956477e-03 0.0000000000000000e+00  1.4397537703760873e-02 2.6740748620290994e-03 0.0000000000000000e+00  2.2011602996717023e-02 2.5327861526622196e-03 0.0000000000000000e+00  3.1899823152644995e-02 2.3654673673654350e-03 0.0000000000000000e+00  0.0000000000000000e+00 -7.8866095524977522e-05 0.0000000000000000e+00  3.8955853983697819e-05 -7.2120076554178463e-05 0.0000000000000000e+00  7.5631155703639836e-05 -5.2227393672846959e-05 0.0000000000000000e+00  1.0785902483974155e-04 -1.9256140368502900e-05 0.0000000000000000e+00  1.3350874086202820e-04 2.6665908728013007e-05 0.0000000000000000e+00  1.5045638693397470e-04 8.5360677736953035e-05 0.0000000000000000e+00  1.5659602344625311e-04 1.5659602345222389e-04 0.0000000000000000e+00  1.4985635303395585e-04 2.4007982042848267e-04 0.0000000000000000e+00  1.2821530846395196e-04 3.3545453805013169e-04 0.0000000000000000e+00  8.9714615875262588e-05 4.4229177016793831e-04 0.0000000000000000e+00  3.2476135315445662e-05 5.6008641413010326e-04 0.0000000000000000e+00  -4.5278676407370994e-05 6.8825046197207133e-04 0.0000000000000000e+00  -1.4520484944406252e-04 8.2610649988736908e-04 0.0000000000000000e+00  -2.6880391009458506e-04 9.7288108056727322e-04 0.0000000000000000e+00  -4.1738567438756406e-04 1.1276981791512230e-03 0.0000000000000000e+00  -5.9201893111982603e-04 1.2895729837089224e-03 0.0000000000000000e+00  -7.9346708818376147e-04 1.4574063110801795e-03 0.0000000000000000e+00  -1.0221034814841534e-03 1.6299799786769122e-03 0.0000000000000000e+00  -1.2777992498162432e-03 1.8059535020623699e-03 0.0000000000000000e+00  -1.5597743763732018e-03 1.9838625239079230e-03 0.0000000000000000e+00  -1.8663996061726569e-03 2.1621194085430328e-03 0.0000000000000000e+00  -2.1949334019707714e-03 2.3390164540861309e-03 0.0000000000000000e+00  -2.5411738647156197e-03 2.5127321748106327e-03 0.0000000000000000e+00  -2.8990006395571608e-03 2.6813410841027663e-03 0.0000000000000000e+00  -3.2597763531833665e-03 2.8428273553952016e-03 0.0000000000000000e+00  -3.6115712813920469e-03 2.9951026458273321e-03 0.0000000000000000e+00  -3.9381690339620381e-03 3.1360282271073341e-03 0.0000000000000000e+00  -4.2178054697520062e-03 3.2634413702939675e-03 0.0000000000000000e+00  -4.4215882627317909e-03 3.3751856679982142e-03 0.0000000000000000e+00  -4.5115409089319007e-03 3.4691446423192867e-03 0.0000000000000000e+00  -4.4382126344014389e-03 3.5432775757183077e-03 0.0000000000000000e+00  -4.1377942878465020e-03 3.5956560161038236e-03 0.0000000000000000e+00  -3.5286787406378925e-03 3.6244988546035089e-03 0.0000000000000000e+00  -2.5074002959886250e-03 3.6282032802062601e-03 0.0000000000000000e+00  -9.4387736437704023e-04 3.6053683447792671e-03 0.0000000000000000