<?xml version="1.0"?>
<VTKFile type="UnstructuredGrid"  version="0.1"  >
<UnstructuredGrid>
<Piece  NumberOfPoints="1681" NumberOfCells="3200">
<Points>
<DataArray  type="Float64"  NumberOfComponents="3"  format="ascii">0 0 0  0.5 0 0  1 0 0  1.5 0 0  2 0 0  2.5 0 0  3 0 0  3.5 0 0  4 0 0  4.5 0 0  5 0 0  5.5 0 0  6 0 0  6.5 0 0  7 0 0  7.5 0 0  8 0 0  8.5 0 0  9 0 0  9.5 0 0  10 0 0  10.5 0 0  11 0 0  11.5 0 0  12 0 0  12.5 0 0  13 0 0  13.5 0 0  14 0 0  14.5 0 0  15 0 0  15.5 0 0  16 0 0  16.5 0 0  17 0 0  17.5 0 0  18 0 0  18.5 0 0  19 0 0  19.5 0 0  20 0 0  0 0.5 0  0.5 0.5 0  1 0.5 0  1.5 0.5 0  2 0.5 0  2.5 0.5 0  3 0.5 0  3.5 0.5 0  4 0.5 0  4.5 0.5 0  5 0.5 0  5.5 0.5 0  6 0.5 0  6.5 0.5 0  7 0.5 0  7.5 0.5 0  8 0.5 0  8.5 0.5 0  9 0.5 0  9.5 0.5 0  10 0.5 0  10.5 0.5 0  11 0.5 0  11.5 0.5 0  12 0.5 0  12.5 0.5 0  13 0.5 0  13.5 0.5 0  14 0.5 0  14.5 0.5 0  15 0.5 0  15.5 0.5 0  16 0.5 0  16.5 0.5 0  17 0.5 0  17.5 0.5 0  18 0.5 0  18.5 0.5 0  19 0.5 0  19.5 0.5 0  20 0.5 0  0 1 0  0.5 1 0  1 1 0  1.5 1 0  2 1 0  2.5 1 0  3 1 0  3.5 1 0  4 1 0  4.5 1 0  5 1 0  5.5 1 0  6 1 0  6.5 1 0  7 1 0  7.5 1 0  8 1 0  8.5 1 0  9 1 0  9.5 1 0  10 1 0  10.5 1 0  11 1 0  11.5 1 0  12 1 0  12.5 1 0  13 1 0  13.5 1 0  14 1 0  14.5 1 0  15 1 0  15.5 1 0  16 1 0  16.5 1 0  17 1 0  17.5 1 0  18 1 0  18.5 1 0  19 1 0  19.5 1 0  20 1 0  0 1.5 0  0.5 1.5 0  1 1.5 0  1.5 1.5 0  2 1.5 0  2.5 1.5 0  3 1.5 0  3.5 1.5 0  4 1.5 0  4.5 1.5 0  5 1.5 0  5.5 1.5 0  6 1.5 0  6.5 1.5 0  7 1.5 0  7.5 1.5 0  8 1.5 0  8.5 1.5 0  9 1.5 0  9.5 1.5 0  10 1.5 0  10.5 1.5 0  11 1.5 0  11.5 1.5 0  12 1.5 0  12.5 1.5 0  13 1.5 0  13.5 1.5 0  14 1.5 0  14.5 1.5 0  15 1.5 0  15.5 1.5 0  16 1.5 0  16.5 1.5 0  17 1.5 0  17.5 1.5 0  18 1.5 0  18.5 1.5 0  19 1.5 0  19.5 1.5 0  20 1.5 0  0 2 0  0.5 2 0  1 2 0  1.5 2 0  2 2 0  2.5 2 0  3 2 0  3.5 2 0  4 2 0  4.5 2 0  5 2 0  5.5 2 0  6 2 0  6.5 2 0  7 2 0  7.5 2 0  8 2 0  8.5 2 0  9 2 0  9.5 2 0  10 2 0  10.5 2 0  11 2 0  11.5 2 0  12 2 0  12.5 2 0  13 2 0  13.5 2 0  14 2 0  14.5 2 0  15 2 0  15.5 2 0  16 2 0  16.5 2 0  17 2 0  17.5 2 0  18 2 0  18.5 2 0  19 2 0  19.5 2 0  20 2 0  0 2.5 0  0.5 2.5 0  1 2.5 0  1.5 2.5 0  2 2.5 0  2.5 2.5 0  3 2.5 0  3.5 2.5 0  4 2.5 0  4.5 2.5 0  5 2.5 0  5.5 2.5 0  6 2.5 0  6.5 2.5 0  7 2.5 0  7.5 2.5 0  8 2.5 0  8.5 2.5 0  9 2.5 0  9.5 2.5 0  10 2.5 0  10.5 2.5 0  11 2.5 0  11.5 2.5 0  12 2.5 0  12.5 2.5 0  13 2.5 0  13.5 2.5 0  14 2.5 0  14.5 2.5 0  15 2.5 0  15.5 2.5 0  16 2.5 0  16.5 2.5 0  17 2.5 0  17.5 2.5 0  18 2.5 0  18.5 2.5 0  19 2.5 0  19.5 2.5 0  20 2.5 0  0 3 0  0.5 3 0  1 3 0  1.5 3 0  2 3 0  2.5 3 0  3 3 0  3.5 3 0  4 3 0  4.5 3 0  5 3 0  5.5 3 0  6 3 0  6.5 3 0  7 3 0  7.5 3 0  8 3 0  8.5 3 0  9 3 0  9.5 3 0  10 3 0  10.5 3 0  11 3 0  11.5 3 0  12 3 0  12.5 3 0  13 3 0  13.5 3 0  14 3 0  14.5 3 0  15 3 0  15.5 3 0  16 3 0  16.5 3 0  17 3 0  17.5 3 0  18 3 0  18.5 3 0  19 3 0  19.5 3 0  20 3 0  0 3.5 0  0.5 3.5 0  1 3.5 0  1.5 3.5 0  2 3.5 0  2.5 3.5 0  3 3.5 0  3.5 3.5 0  4 3.5 0  4.5 3.5 0  5 3.5 0  5.5 3.5 0  6 3.5 0  6.5 3.5 0  7 3.5 0  7.5 3.5 0  8 3.5 0  8.5 3.5 0  9 3.5 0  9.5 3.5 0  10 3.5 0  10.5 3.5 0  11 3.5 0  11.5 3.5 0  12 3.5 0  12.5 3.5 0  13 3.5 0  13.5 3.5 0  14 3.5 0  14.5 3.5 0  15 3.5 0  15.5 3.5 0  16 3.5 0  16.5 3.5 0  17 3.5 0  17.5 3.5 0  18 3.5 0  18.5 3.5 0  19 3.5 0  19.5 3.5 0  20 3.5 0  0 4 0  0.5 4 0  1 4 0  1.5 4 0  2 4 0  2.5 4 0  3 4 0  3.5 4 0  4 4 0  4.5 4 0  5 4 0  5.5 4 0  6 4 0  6.5 4 0  7 4 0  7.5 4 0  8 4 0  8.5 4 0  9 4 0  9.5 4 0  10 4 0  10.5 4 0  11 4 0  11.5 4 0  12 4 0  12.5 4 0  13 4 0  13.5 4 0  14 4 0  14.5 4 0  15 4 0  15.5 4 0  16 4 0  16.5 4 0  17 4 0  17.5 4 0  18 4 0  18.5 4 0  19 4 0  19.5 4 0  20 4 0  0 4.5 0  0.5 4.5 0  1 4.5 0  1.5 4.5 0  2 4.5 0  2.5 4.5 0  3 4.5 0  3.5 4.5 0  4 4.5 0  4.5 4.5 0  5 4.5 0  5.5 4.5 0  6 4.5 0  6.5 4.5 0  7 4.5 0  7.5 4.5 0  8 4.5 0  8.5 4.5 0  9 4.5 0  9.5 4.5 0  10 4.5 0  10.5 4.5 0  11 4.5 0  11.5 4.5 0  12 4.5 0  12.5 4.5 0  13 4.5 0  13.5 4.5 0  14 4.5 0  14.5 4.5 0  15 4.5 0  15.5 4.5 0  16 4.5 0  16.5 4.5 0  17 4.5 0  17.5 4.5 0  18 4.5 0  18.5 4.5 0  19 4.5 0  19.5 4.5 0  20 4.5 0  0 5 0  0.5 5 0  1 5 0  1.5 5 0  2 5 0  2.5 5 0  3 5 0  3.5 5 0  4 5 0  4.5 5 0  5 5 0  5.5 5 0  6 5 0  6.5 5 0  7 5 0  7.5 5 0  8 5 0  8.5 5 0  9 5 0  9.5 5 0  10 5 0  10.5 5 0  11 5 0  11.5 5 0  12 5 0  12.5 5 0  13 5 0  13.5 5 0  14 5 0  14.5 5 0  15 5 0  15.5 5 0  16 5 0  16.5 5 0  17 5 0  17.5 5 0  18 5 0  18.5 5 0  19 5 0  19.5 5 0  20 5 0  0 5.5 0  0.5 5.5 0  1 5.5 0  1.5 5.5 0  2 5.5 0  2.5 5.5 0  3 5.5 0  3.5 5.5 0  4 5.5 0  4.5 5.5 0  5 5.5 0  5.5 5.5 0  6 5.5 0  6.5 5.5 0  7 5.5 0  7.5 5.5 0  8 5.5 0  8.5 5.5 0  9 5.5 0  9.5 5.5 0  10 5.5 0  10.5 5.5 0  11 5.5 0  11.5 5.5 0  12 5.5 0  12.5 5.5 0  13 5.5 0  13.5 5.5 0  14 5.5 0  14.5 5.5 0  15 5.5 0  15.5 5.5 0  16 5.5 0  16.5 5.5 0  17 5.5 0  17.5 5.5 0  18 5.5 0  18.5 5.5 0  19 5.5 0  19.5 5.5 0  20 5.5 0  0 6 0  0.5 6 0  1 6 0  1.5 6 0  2 6 0  2.5 6 0  3 6 0  3.5 6 0  4 6 0  4.5 6 0  5 6 0  5.5 6 0  6 6 0  6.5 6 0  7 6 0  7.5 6 0  8 6 0  8.5 6 0  9 6 0  9.5 6 0  10 6 0  10.5 6 0  11 6 0  11.5 6 0  12 6 0  12.5 6 0  13 6 0  13.5 6 0  14 6 0  14.5 6 0  15 6 0  15.5 6 0  16 6 0  16.5 6 0  17 6 0  17.5 6 0  18 6 0  18.5 6 0  19 6 0  19.5 6 0  20 6 0  0 6.5 0  0.5 6.5 0  1 6.5 0  1.5 6.5 0  2 6.5 0  2.5 6.5 0  3 6.5 0  3.5 6.5 0  4 6.5 0  4.5 6.5 0  5 6.5 0  5.5 6.5 0  6 6.5 0  6.5 6.5 0  7 6.5 0  7.5 6.5 0  8 6.5 0  8.5 6.5 0  9 6.5 0  9.5 6.5 0  10 6.5 0  10.5 6.5 0  11 6.5 0  11.5 6.5 0  12 6.5 0  12.5 6.5 0  13 6.5 0  13.5 6.5 0  14 6.5 0  14.5 6.5 0  15 6.5 0  15.5 6.5 0  16 6.5 0  16.5 6.5 0  17 6.5 0  17.5 6.5 0  18 6.5 0  18.5 6.5 0  19 6.5 0  19.5 6.5 0  20 6.5 0  0 7 0  0.5 7 0  1 7 0  1.5 7 0  2 7 0  2.5 7 0  3 7 0  3.5 7 0  4 7 0  4.5 7 0  5 7 0  5.5 7 0  6 7 0  6.5 7 0  7 7 0  7.5 7 0  8 7 0  8.5 7 0  9 7 0  9.5 7 0  10 7 0  10.5 7 0  11 7 0  11.5 7 0  12 7 0  12.5 7 0  13 7 0  13.5 7 0  14 7 0  14.5 7 0  15 7 0  15.5 7 0  16 7 0  16.5 7 0  17 7 0  17.5 7 0  18 7 0  18.5 7 0  19 7 0  19.5 7 0  20 7 0  0 7.5 0  0.5 7.5 0  1 7.5 0  1.5 7.5 0  2 7.5 0  2.5 7.5 0  3 7.5 0  3.5 7.5 0  4 7.5 0  4.5 7.5 0  5 7.5 0  5.5 7.5 0  6 7.5 0  6.5 7.5 0  7 7.5 0  7.5 7.5 0  8 7.5 0  8.5 7.5 0  9 7.5 0  9.5 7.5 0  10 7.5 0  10.5 7.5 0  11 7.5 0  11.5 7.5 0  12 7.5 0  12.5 7.5 0  13 7.5 0  13.5 7.5 0  14 7.5 0  14.5 7.5 0  15 7.5 0  15.5 7.5 0  16 7.5 0  16.5 7.5 0  17 7.5 0  17.5 7.5 0  18 7.5 0  18.5 7.5 0  19 7.5 0  19.5 7.5 0  20 7.5 0  0 8 0  0.5 8 0  1 8 0  1.5 8 0  2 8 0  2.5 8 0  3 8 0  3.5 8 0  4 8 0  4.5 8 0  5 8 0  5.5 8 0  6 8 0  6.5 8 0  7 8 0  7.5 8 0  8 8 0  8.5 8 0  9 8 0  9.5 8 0  10 8 0  10.5 8 0  11 8 0  11.5 8 0  12 8 0  12.5 8 0  13 8 0  13.5 8 0  14 8 0  14.5 8 0  15 8 0  15.5 8 0  16 8 0  16.5 8 0  17 8 0  17.5 8 0  18 8 0  18.5 8 0  19 8 0  19.5 8 0  20 8 0  0 8.5 0  0.5 8.5 0  1 8.5 0  1.5 8.5 0  2 8.5 0  2.5 8.5 0  3 8.5 0  3.5 8.5 0  4 8.5 0  4.5 8.5 0  5 8.5 0  5.5 8.5 0  6 8.5 0  6.5 8.5 0  7 8.5 0  7.5 8.5 0  8 8.5 0  8.5 8.5 0  9 8.5 0  9.5 8.5 0  10 8.5 0  10.5 8.5 0  11 8.5 0  11.5 8.5 0  12 8.5 0  12.5 8.5 0  13 8.5 0  13.5 8.5 0  14 8.5 0  14.5 8.5 0  15 8.5 0  15.5 8.5 0  16 8.5 0  16.5 8.5 0  17 8.5 0  17.5 8.5 0  18 8.5 0  18.5 8.5 0  19 8.5 0  19.5 8.5 0  20 8.5 0  0 9 0  0.5 9 0  1 9 0  1.5 9 0  2 9 0  2.5 9 0  3 9 0  3.5 9 0  4 9 0  4.5 9 0  5 9 0  5.5 9 0  6 9 0  6.5 9 0  7 9 0  7.5 9 0  8 9 0  8.5 9 0  9 9 0  9.5 9 0  10 9 0  10.5 9 0  11 9 0  11.5 9 0  12 9 0  12.5 9 0  13 9 0  13.5 9 0  14 9 0  14.5 9 0  15 9 0  15.5 9 0  16 9 0  16.5 9 0  17 9 0  17.5 9 0  18 9 0  18.5 9 0  19 9 0  19.5 9 0  20 9 0  0 9.5 0  0.5 9.5 0  1 9.5 0  1.5 9.5 0  2 9.5 0  2.5 9.5 0  3 9.5 0  3.5 9.5 0  4 9.5 0  4.5 9.5 0  5 9.5 0  5.5 9.5 0  6 9.5 0  6.5 9.5 0  7 9.5 0  7.5 9.5 0  8 9.5 0  8.5 9.5 0  9 9.5 0  9.5 9.5 0  10 9.5 0  10.5 9.5 0  11 9.5 0  11.5 9.5 0  12 9.5 0  12.5 9.5 0  13 9.5 0  13.5 9.5 0  14 9.5 0  14.5 9.5 0  15 9.5 0  15.5 9.5 0  16 9.5 0  16.5 9.5 0  17 9.5 0  17.5 9.5 0  18 9.5 0  18.5 9.5 0  19 9.5 0  19.5 9.5 0  20 9.5 0  0 10 0  0.5 10 0  1 10 0  1.5 10 0  2 10 0  2.5 10 0  3 10 0  3.5 10 0  4 10 0  4.5 10 0  5 10 0  5.5 10 0  6 10 0  6.5 10 0  7 10 0  7.5 10 0  8 10 0  8.5 10 0  9 10 0  9.5 10 0  10 10 0  10.5 10 0  11 10 0  11.5 10 0  12 10 0  12.5 10 0  13 10 0  13.5 10 0  14 10 0  14.5 10 0  15 10 0  15.5 10 0  16 10 0  16.5 10 0  17 10 0  17.5 10 0  18 10 0  18.5 10 0  19 10 0  19.5 10 0  20 10 0  0 10.5 0  0.5 10.5 0  1 10.5 0  1.5 10.5 0  2 10.5 0  2.5 10.5 0  3 10.5 0  3.5 10.5 0  4 10.5 0  4.5 10.5 0  5 10.5 0  5.5 10.5 0  6 10.5 0  6.5 10.5 0  7 10.5 0  7.5 10.5 0  8 10.5 0  8.5 10.5 0  9 10.5 0  9.5 10.5 0  10 10.5 0  10.5 10.5 0  11 10.5 0  11.5 10.5 0  12 10.5 0  12.5 10.5 0  13 10.5 0  13.5 10.5 0  14 10.5 0  14.5 10.5 0  15 10.5 0  15.5 10.5 0  16 10.5 0  16.5 10.5 0  17 10.5 0  17.5 10.5 0  18 10.5 0  18.5 10.5 0  19 10.5 0  19.5 10.5 0  20 10.5 0  0 11 0  0.5 11 0  1 11 0  1.5 11 0  2 11 0  2.5 11 0  3 11 0  3.5 11 0  4 11 0  4.5 11 0  5 11 0  5.5 11 0  6 11 0  6.5 11 0  7 11 0  7.5 11 0  8 11 0  8.5 11 0  9 11 0  9.5 11 0  10 11 0  10.5 11 0  11 11 0  11.5 11 0  12 11 0  12.5 11 0  13 11 0  13.5 11 0  14 11 0  14.5 11 0  15 11 0  15.5 11 0  16 11 0  16.5 11 0  17 11 0  17.5 11 0  18 11 0  18.5 11 0  19 11 0  19.5 11 0  20 11 0  0 11.5 0  0.5 11.5 0  1 11.5 0  1.5 11.5 0  2 11.5 0  2.5 11.5 0  3 11.5 0  3.5 11.5 0  4 11.5 0  4.5 11.5 0  5 11.5 0  5.5 11.5 0  6 11.5 0  6.5 11.5 0  7 11.5 0  7.5 11.5 0  8 11.5 0  8.5 11.5 0  9 11.5 0  9.5 11.5 0  10 11.5 0  10.5 11.5 0  11 11.5 0  11.5 11.5 0  12 11.5 0  12.5 11.5 0  13 11.5 0  13.5 11.5 0  14 11.5 0  14.5 11.5 0  15 11.5 0  15.5 11.5 0  16 11.5 0  16.5 11.5 0  17 11.5 0  17.5 11.5 0  18 11.5 0  18.5 11.5 0  19 11.5 0  19.5 11.5 0  20 11.5 0  0 12 0  0.5 12 0  1 12 0  1.5 12 0  2 12 0  2.5 12 0  3 12 0  3.5 12 0  4 12 0  4.5 12 0  5 12 0  5.5 12 0  6 12 0  6.5 12 0  7 12 0  7.5 12 0  8 12 0  8.5 12 0  9 12 0  9.5 12 0  10 12 0  10.5 12 0  11 12 0  11.5 12 0  12 12 0  12.5 12 0  13 12 0  13.5 12 0  14 12 0  14.5 12 0  
[...]
<PointData  Vectors="f_4890-0"> 
<DataArray  type="Float64"  Name="f_4890-0"  NumberOfComponents="3" format="ascii">0.0000000000000000e+00 0.0000000000000000e+00 0.0000000000000000e+00  -1.7870668933856150e-07 0.0000000000000000e+00 0.0000000000000000e+00  -8.6298025732131284e-07 0.0000000000000000e+00 0.0000000000000000e+00  -2.7244684142743005e-06 0.0000000000000000e+00 0.0000000000000000e+00  -6.3471898241016799e-06 0.0000000000000000e+00 0.0000000000000000e+00  -1.2303479939462671e-05 0.0000000000000000e+00 0.0000000000000000e+00  -2.1156033020131123e-05 0.0000000000000000e+00 0.0000000000000000e+00  -3.3454812229092247e-05 0.0000000000000000e+00 0.0000000000000000e+00  -4.9733726415772193e-05 0.0000000000000000e+00 0.0000000000000000e+00  -7.0507193331522633e-05 0.0000000000000000e+00 0.0000000000000000e+00  -9.6266484751844151e-05 0.0000000000000000e+00 0.0000000000000000e+00  -1.2747578243262240e-04 0.0000000000000000e+00 0.0000000000000000e+00  -1.6456788671819468e-04 0.0000000000000000e+00 0.0000000000000000e+00  -2.0793951268007502e-04 0.0000000000000000e+00 0.0000000000000000e+00  -2.5794608546531468e-04 0.0000000000000000e+00 0.0000000000000000e+00  -3.1489590154246708e-04 0.0000000000000000e+00 0.0000000000000000e+00  -3.7904344360222046e-04 0.0000000000000000e+00 0.0000000000000000e+00  -4.5058150302207855e-04 0.0000000000000000e+00 0.0000000000000000e+00  -5.2963154247856481e-04 0.0000000000000000e+00 0.0000000000000000e+00  -6.1623137056158518e-04 0.0000000000000000e+00 0.0000000000000000e+00  -7.1031862001528319e-04 0.0000000000000000e+00 0.0000000000000000e+00  -8.1170759762904862e-04 0.0000000000000000e+00 0.0000000000000000e+00  -9.2005561910847133e-04 0.0000000000000000e+00 0.0000000000000000e+00  -1.0348126741889113e-03 0.0000000000000000e+00 0.0000000000000000e+00  -1.1551447690731965e-03 0.0000000000000000e+00 0.0000000000000000e+00  -1.2798159647940345e-03 0.0000000000000000e+00 0.0000000000000000e+00  -1.4070061267846606e-03 0.0000000000000000e+00 0.0000000000000000e+00  -1.5340295843222990e-03 0.0000000000000000e+00 0.0000000000000000e+00  -1.6569028108874310e-03 0.0000000000000000e+00 0.0000000000000000e+00  -1.7696851670222417e-03 0.0000000000000000e+00 0.0000000000000000e+00  -1.8634839748840461e-03 0.0000000000000000e+00 0.0000000000000000e+00  -1.9249725619917000e-03 0.0000000000000000e+00 0.0000000000000000e+00  -1.9342179321989992e-03 0.0000000000000000e+00 0.0000000000000000e+00  -1.8615573852716115e-03 0.0000000000000000e+00 0.0000000000000000e+00  -1.6632106801135892e-03 0.0000000000000000e+00 0.0000000000000000e+00  -1.2752846291333862e-03 0.0000000000000000e+00 0.0000000000000000e+00  -6.0584729026184317e-04 0.0000000000000000e+00 0.0000000000000000e+00  4.7515320219210510e-04 0.0000000000000000e+00 0.0000000000000000e+00  2.1481770180131359e-03 0.0000000000000000e+00 0.0000000000000000e+00  4.6585586653045069e-03 0.0000000000000000e+00 0.0000000000000000e+00  8.3347254867207447e-03 0.0000000000000000e+00 0.0000000000000000e+00  0.0000000000000000e+00 -1.7870669048576413e-07 0.0000000000000000e+00  1.9741258103056342e-07 1.9741258342827888e-07 0.0000000000000000e+00  -2.1750836168462749e-07 1.1193726405076564e-06 0.0000000000000000e+00  -1.7961272857911904e-06 2.5964008757827556e-06 0.0000000000000000e+00  -5.1282998544438141e-06 4.6419646089024858e-06 0.0000000000000000e+00  -1.0791638672506656e-05 7.2548167574399600e-06 0.0000000000000000e+00  -1.9350899044582019e-05 1.0425638205803468e-05 0.0000000000000000e+00  -3.1356959449655124e-05 1.4140425075112201e-05 0.0000000000000000e+00  -4.7344349771177631e-05 1.8381517632684494e-05 0.0000000000000000e+00  -6.7828107215921933e-05 2.3127750156148171e-05 0.0000000000000000e+00  -9.3300227400399337e-05 2.8354308269638020e-05 0.0000000000000000e+00  -1.2422576369924260e-04 3.4032488499101327e-05 0.0000000000000000e+00  -1.6103855587359359e-04 4.0129425712660194e-05 0.0000000000000000e+00  -2.0413653552338911e-04 4.6607814660873357e-05 0.0000000000000000e+00  -2.5387652409289662e-04 5.3425641276643086e-05 0.0000000000000000e+00  -3.1056839145738159e-04 6.0535936553109407e-05 0.0000000000000000e+00  -3.7446836288449750e-04 6.7886565810379784e-05 0.0000000000000000e+00  -4.4577112823267505e-04 7.5420066590363926e-05 0.0000000000000000e+00  -5.2460018571623098e-04 8.3073548803079840e-05 0.0000000000000000e+00  -6.1099549197688103e-04 9.0778670950571446e-05 0.0000000000000000e+00  -7.0489690998756002e-04 9.8461705839030688e-05 0.0000000000000000e+00  -8.0612102282872212e-04 1.0604370867137667e-04 0.0000000000000000e+00  -9.1432742659068719e-04 1.1344079985436209e-04 0.0000000000000000e+00  -1.0289683466392428e-03 1.2056457489009022e-04 0.0000000000000000e+00  -1.1492119221334061e-03 1.2732265584831058e-04 0.0000000000000000e+00  -1.2738241716941114e-03 1.3361940498746262e-04 0.0000000000000000e+00  -1.4009866444707109e-03 1.3935683390954486e-04 0.0000000000000000e+00  -1.5280149345082523e-03 1.4443576543656119e-04 0.0000000000000000e+00  -1.6509261343344527e-03 1.4875734422935651e-04 0.0000000000000000e+00  -1.7637792137097886e-03 1.5222504806640269e-04 0.0000000000000000e+00  -1.8576795119516229e-03 1.5474742112207547e-04 0.0000000000000000e+00  -1.9192958758912403e-03 1.5624181346426635e-04 0.0000000000000000e+00  -1.9286869821002243e-03 1.5663941740383822e-04 0.0000000000000000e+00  -1.8561760596377491e-03 1.5589174227601782e-04 0.0000000000000000e+00  -1.6579605643012715e-03 1.5397819514767884e-04 0.0000000000000000e+00  -1.2701137772355390e-03 1.5091336458186922e-04 0.0000000000000000e+00  -6.0065591633642478e-04 1.4675035371040511e-04 0.0000000000000000e+00  4.8052792820921312e-04 1.4157087356184115e-04 0.0000000000000000e+00  2.1539579050981468e-03 1.3543333422502837e-04 0.0000000000000000e+00  4.6648257659561813e-03 1.2816938812472396e-04 0.0000000000000000e+00  8.3388066220907338e-03 1.1859374069888551e-04 0.0000000000000000e+00  0.0000000000000000e+00 -8.6298025584703442e-07 0.0000000000000000e+00  1.1193726418488964e-06 -2.1750835869536214e-07 0.0000000000000000e+00  1.5927387233444976e-06 1.5927387193616699e-06 0.0000000000000000e+00  8.9218197276768093e-07 4.5525291908386577e-06 0.0000000000000000e+00  -1.5621973213605213e-06 8.6564334626448973e-06 0.0000000000000000e+00  -6.3465298385201961e-06 1.3892609076733885e-05 0.0000000000000000e+00  -1.4026590076103076e-05 2.0241722063353805e-05 0.0000000000000000e+00  -2.5154737054410926e-05 2.7676934788930613e-05 0.0000000000000000e+00  -4.0267132869292757e-05 3.6164109916556835e-05 0.0000000000000000e+00  -5.9880668552763838e-05 4.5661819844965275e-05 0.0000000000000000e+00  -8.4489522985636497e-05 5.6121119319689336e-05 0.0000000000000000e+00  -1.1456134577896738e-04 6.7485152509984034e-05 0.0000000000000000e+00  -1.5053304166968203e-04 7.9688668068224507e-05 0.0000000000000000e+00  -1.9280610899609422e-04 9.2657496503429154e-05 0.0000000000000000e+00  -2.4174145180322863e-04 1.0630803034864234e-04 0.0000000000000000e+00  -2.9765353513906798e-04 1.2054674041159086e-04 0.0000000000000000e+00  -3.6080367167839821e-04 1.3526975884648788e-04 0.0000000000000000e+00  -4.3139209296247767e-04 1.5036255944348139e-04 0.0000000000000000e+00  -5.0954823681897445e-04 1.6569976593538716e-04 0.0000000000000000e+00  -5.9531832195632245e-04 1.8114511977948401e-04 0.0000000000000000e+00  -6.8864870037945391e-04 1.9655163898912761e-04 0.0000000000000000e+00  -7.8936255471172463e-04 2.1176199960683235e-04 0.0000000000000000e+00  -8.9712605141321238e-04 2.2660917163829614e-04 0.0000000000000000e+00  -1.0113977897244512e-03 2.4091734253914792e-04 0.0000000000000000e+00  -1.1313518820578530e-03 2.5450316597272298e-04 0.0000000000000000e+00  -1.2557596612189552e-03 2.6717738376573990e-04 0.0000000000000000e+00  -1.3828069878964542e-03 2.7874688907983386e-04 0.0000000000000000e+00  -1.5098122860895764e-03 2.8901733277487870e-04 0.0000000000000000e+00  -1.6327933068058676e-03 2.9779642593106583e-04 0.0000000000000000e+00  -1.7458065030693348e-03 3.0489815726921898e-04 0.0000000000000000e+00  -1.8399500842764315e-03 3.1014820885382117e-04 0.0000000000000000e+00  -1.9018791778801483e-03 3.1339087318164085e-04 0.0000000000000000e+00  -1.9116296263693060e-03 3.1449765212081596e-04 0.0000000000000000e+00  -1.8394898611207777e-03 3.1337726773547826e-04 0.0000000000000000e+00  -1.6416081002219821e-03 3.0998569560021294e-04 0.0000000000000000e+00  -1.2539934170180916e-03 3.0433240740161888e-04 0.0000000000000000e+00  -5.8459171694801341e-04 2.9647392082793214e-04 0.0000000000000000e+00  4.9677714751672714e-04 2.8647466399086267e-04 0.0000000000000000e+00  2.1706273727980282e-03 2.7428990681437933e-04 0.0000000000000000e+00  4.6818700109944704e-03 2.5947191503192680e-04 0.0000000000000000e+00  8.3550606065293815e-03 2.4053867215179136e-04 0.0000000000000000e+00  0.0000000000000000e+00 -2.7244684130134500e-06 0.0000000000000000e+00  2.5964008780912634e-06 -1.7961272870990055e-06 0.0000000000000000e+00  4.5525291911597180e-06 8.9218196802987404e-07 0.0000000000000000e+00  5.3226840756378004e-06 5.3226840757750697e-06 0.0000000000000000e+00  4.3352052155524243e-06 1.1478738798147348e-05 0.0000000000000000e+00  1.0162174184087785e-06 1.9337678421134891e-05 0.0000000000000000e+00  -5.2000108003839088e-06 2.8867965858978958e-05 0.0000000000000000e+00  -1.4867008522465987e-05 4.0028588348938399e-05 0.0000000000000000e+00  -2.8522949124872597e-05 5.2768608748147831e-05 0.0000000000000000e+00  -4.6687457992312669e-05 6.7026629106565336e-05 0.0000000000000000e+00  -6.9858170989556628e-05 8.2730159767943737e-05 0.0000000000000000e+00  -9.8506958968797527e-05 9.9794904777735657e-05 0.0000000000000000e+00  -1.3307575929023900e-04 1.1812398697087953e-04 0.0000000000000000e+00  -1.7397195000026910e-04 1.3760714615302779e-04 0.0000000000000000e+00  -2.2156317818211544e-04 1.5811994940639377e-04 0.0000000000000000e+00  -2.7617150743530755e-04 1.7952305595990770e-04 0.0000000000000000e+00  -3.3806666930299403e-04 2.0166158143141263e-04 0.0000000000000000e+00  -4.0745806910013672e-04 2.2436460851500204e-04 0.0000000000000000e+00  -4.8448497505150734e-04 2.4744489358727404e-04 0.0000000000000000e+00  -5.6920395914750405e-04 2.7069882078757321e-04 0.0000000000000000e+00  -6.6157207779394352e-04 2.9390665657069574e-04 0.0000000000000000e+00  -7.6142335610643699e-04 3.1683315916283225e-04 0.0000000000000000e+00  -8.6843468227794699e-04 3.3922859861936703e-04 0.0000000000000000e+00  -9.8207494421768656e-04 3.6083024551204692e-04 0.0000000000000000e+00  -1.1015277305814518e-03 3.8136439164100145e-04 0.0000000000000000e+00  -1.2255725688967371e-03 4.0054897626674174e-04 0.0000000000000000e+00  -1.3524016372494939e-03 4.1809690995880066e-04 0.0000000000000000e+00  -1.4793370220874515e-03 4.3372021598469499e-04 0.0000000000000000e+00  -1.6023964474518875e-03 4.4713514609814750e-04 0.0000000000000000e+00  -1.7156312715854959e-03 4.5806846163977893e-04 0.0000000000000000e+00  -1.8101277461628055e-03 4.6626507369407991e-04 0.0000000000000000e+00  -1.8725199710627797e-03 4.7149714024867918e-04 0.0000000000000000e+00  -1.8828112784707223e-03 4.7357439627120757e-04 0.0000000000000000e+00  -1.8112441116343986e-03 4.7235471426517383e-04 0.0000000000000000e+00  -1.6139070490652128e-03 4.6775227522262018e-04 0.0000000000000000e+00  -1.2267403345890522e-03 4.5973767150814644e-04 0.0000000000000000e+00  -5.5762642094598009e-04 4.4831890524362335e-04 0.0000000000000000e+00  5.2363742653307153e-04 4.3348377809421972e-04 0.0000000000000000e+00  2.1974697055788797e-03 4.1507403877019330e-04 0.0000000000000000e+00  4.7084172262397816e-03 3.9256392709883061e-04 0.0000000000000000e+00  8.3802169709186816e-03 3.6479555125209671e-04 0.0000000000000000e+00  0.0000000000000000e+00 -6.3471898255148900e-06 0.0000000000000000e+00  4.6419646090580849e-06 -5.1282998557879648e-06 0.0000000000000000e+00  8.6564334612913488e-06 -1.5621973213895312e-06 0.0000000000000000e+00  1.1478738794418349e-05 4.3352052152017772e-06 0.0000000000000000e+00  1.2539825358966664e-05 1.2539825361687658e-05 0.0000000000000000e+00  1.1267441333371733e-05 2.3019550311981529e-05 0.0000000000000000e+00  7.0956855917749644e-06 3.5731511308799595e-05 0.0000000000000000e+00  -5.3038146675782009e-07 5.0621003195285659e-05 0.0000000000000000e+00  -1.2151395344365753e-05 6.7620676848495552e-05 0.0000000000000000e+00  -2.8290480872264786e-05 8.6649675665803068e-05 0.0000000000000000e+00  -4.9449849083077394e-05 1.0761266516467571e-04 0.0000000000000000e+00  -7.6107075329327569e-05 1.3039877452350110e-04 0.0000000000000000e+00  -1.0871098245441428e-04 1.5488048332352772e-04 0.0000000000000000e+00  -1.4767705305070438e-04 1.8091249200892653e-04 0.0000000000000000e+00  -1.9338227313589818e-04 2.0833062006410434e-04 0.0000000000000000e+00  -2.4615926467654557e-04 2.3695078222740282e-04 0.0000000000000000e+00  -3.0628948533115993e-04 2.6656809933883974e-04 0.0000000000000000e+00  -3.7399513998359000e-04 2.9695620630007275e-04 0.0000000000000000e+00  -4.4942922764084551e-04 3.2786682511488658e-04 0.0000000000000000e+00  -5.3266278689827423e-04 3.5902967566521342e-04 0.0000000000000000e+00  -6.2366782305199185e-04 3.9015280050713942e-04 0.0000000000000000e+00  -7.2229347518147028e-04 4.2092338331064806e-04 0.0000000000000000e+00  -8.2823152293218390e-04 4.5100914267531003e-04 0.0000000000000000e+00  -9.4096505580824018e-04 4.8006038564433112e-04 0.0000000000000000e+00  -1.0596906132553799e-03 5.0771280861758078e-04 0.0000000000000000e+00  -1.1831987469036369e-03 5.3359113899644666e-04 0.0000000000000000e+00  -1.3096899109618599e-03 5.5731371926176607e-04 0.0000000000000000e+00  -1.4364907126063807e-03 5.7849814486779494e-04 0.0000000000000000e+00  -1.5596184021149239e-03 5.9676807214995486e-04 0.0000000000000000e+00  -1.6731173653922319e-03 6.1176129368472742e-04 0.0000000000000000e+00  -1.7680586336047339e-03 6.2313909971031974e-04 0.0000000000000000e+00  -1.8310509950102375e-03 6.3059673097588017e-04 0.0000000000000000e+00  -1.8420608686887552e-03 6.3387425719729881e-04 0.0000000000000000e+00  -1.7712819302310265e-03 6.3276629145539692e-04 0.0000000000000000e+00  -1.5747448918455008e-03 6.2712731810469070e-04 0.0000000000000000e+00  -1.1883317998975917e-03 6.1686683381690743e-04 0.0000000000000000e+00  -5.1988600217017322e-04 6.0192508657620400e-04 0.0000000000000000e+00  5.6077922904464444e-04 5.8221736945602903e-04 0.0000000000000000e+00  2.2339555142869474e-03 5.5753783196040095e-04 0.0000000000000000e+00  4.7438948634324256e-03 5.2743698050690163e-04 0.0000000000000000e+00  8.4139239670072332e-03 4.9116017023842441e-04 0.0000000000000000e+00  0.0000000000000000e+00 -1.2303479939676645e-05 0.0000000000000000e+00  7.2548167573349373e-06 -1.0791638672766216e-05 0.0000000000000000e+00  1.3892609078503619e-05 -6.3465298382293428e-06 0.0000000000000000e+00  1.9337678421776386e-05 1.0162174168479016e-06 0.0000000000000000e+00  2.3019550316393845e-05 1.1267441331528362e-05 0.0000000000000000e+00  2.4366790608245165e-05 2.4366790603960283e-05 0.0000000000000000e+00  2.2813090776078999e-05 4.0261044407042598e-05 0.0000000000000000e+00  1.7801811089901776e-05 5.8882774741306295e-05 0.0000000000000000e+00  8.7893671181228566e-06 8.0149227033447145e-05 0.0000000000000000e+00  -4.7516058761929906e-06 1.0396115074764493e-04 0.0000000000000000e+00  -2.3328934445647834e-05 1.3020151443923344e-04 0.0000000000000000e+00  -4.7427275991500065e-05 1.5873411567176275e-04 0.0000000000000000e+00  -7.7504080501119519e-05 1.8940212176121063e-04 0.0000000000000000e+00  -1.1398505819968098e-04 2.2202658812664106e-04 0.0000000000000000e+00  -1.5725904679092824e-04 2.5640500887757383e-04 0.0000000000000000e+00  -2.0767212775108003e-04 2.9230996194193169e-04 0.0000000000000000e+00  -2.6552076188377606e-04 3.2948791950695229e-04 0.0000000000000000e+00  -3.3104358071737441e-04 3.6765830287138014e-04 0.0000000000000000e+00  -4.0441124936328363e-04 4.0651286900115103e-04 0.0000000000000000e+00  -4.8571345626700002e-04 4.4571552374508014e-04 0.0000000000000000e+00  -5.7494150532996227e-04 4.8490266265791753e-04 0.0000000000000000e+00  -6.7196406104128405e-04 5.2368414572005620e-04 0.0000000000000000e+00  -7.7649213841793493e-04 5.6164501506773194e-04 0.0000000000000000e+00  -8.8802715133554609e-04 5.9834806668523693e-04 0.0000000000000000e+00  -1.0057823164179433e-03 6.3333738644690820e-04 0.0000000000000000e+00  -1.1285623502027577e-03 6.6614295844730524e-04 0.0000000000000000e+00  -1.2545783497062782e-03 6.9628644699249755e-04 0.0000000000000000e+00  -1.3811628737531272e-03 7.2328823884916971e-04 0.0000000000000000e+00  -1.5043331023906674e-03 7.4667579926027529e-04 0.0000000000000000e+00  -1.6181258693108412e-03 7.6599332310233273e-04 0.0000000000000000e+00  -1.7135956940508902e-03 7.8081251485450775e-04 0.0000000000000000e+00  -1.7773246675962418e-03 7.9074404545477961e-04 0.0000000000000000e+00  -1.7892418950120237e-03 7.9544872077972261e-04 0.0000000000000000e+00  -1.7194944611570271e-03 7.9464654511116290e-04 0.0000000000000000e+00  -1.5240618823291387e-03 7.8812059465463696e-04 0.0000000000000000e+00  -1.1387805543474369e-03 7.7571103338948703e-04 0.0000000000000000e+00  -4.7147153776396888e-04 7.5729334600712142e-04 0.0000000000000000e+00  6.0802518839333337e-04 7.3273580147934577e-04 0.0000000000000000e+00  2.2798997827085045e-03 7.0183836539086317e-04 0.0000000000000000e+00  4.7882310531037345e-03 6.6427515966603374e-04 0.0000000000000000e+00  8.4562092452213789e-03 6.1959836013854568e-04 0.0000000000000000e+00  0.0000000000000000e+00 -2.1156033021141294e-05 0.0000000000000000e+00  1.0425638205186375e-05 -1.9350899046340656e-05 0.0000000000000000e+00  2.0241722063121481e-05 -1.4026590076688628e-05 0.0000000000000000e+00  2.8867965860779546e-05 -5.2000108003847422e-06 0.0000000000000000e+00  3.5731511308194346e-05 7.0956855872310282e-06 0.0000000000000000e+00  4.0261044401773131e-05 2.2813090779800879e-05 0.0000000000000000e+00  4.1889705133422733e-05 4.1889705140635503e-05 0.0000000000000000e+00  4.0058996856206768e-05 6.4246536314485695e-05 0.0000000000000000e+00  3.4222038176619559e-05 8.9786713622500784e-05 0.0000000000000000e+00  2.3846617251917593e-05 1.1839401429082626e-04 0.0000000000000000e+00  8.4183833688372958e-06 1.4993125394271911e-04 0.0000000000000000e+00  -1.2555648448142647e-05 1.8423855053052016e-04 0.0000000000000000e+00  -3.9543168544438670e-05 2.2113149928323569e-04 0.0000000000000000e+00  -7.2982120304566114e-05 2.6039931096707780e-04 0.0000000000000000e+00  -1.1327560780456222e-04 3.0180297722956631e-04 0.0000000000000000e+00  -1.6078600293318709e-04 3.4507353742282390e-04 0.0000000000000000e+00  -2.1582801222700253e-04 3.8991053227071084e-04 0.0000000000000000e+00  -2.7866032963140064e-04 4.3598074111781678e-04 0.0000000000000000e+00  -3.4947528028842162e-04 4.8291731045227080e-04 0.0000000000000000e+00  -4.2838550038382225e-04 5.3031939215333890e-04 0.0000000000000000e+00  -5.1540611836529472e-04 5.7775241867039551e-04 0.0000000000000000e+00  -6.1042997878986080e-04 6.2474914952457671e-04 0.0000000000000000e+00  -7.1319199170279211e-04 6.7081162756327977e-04 0.0000000000000000e+00  -8.2321641358668171e-04 7.1541418336803781e-04 0.0000000000000000e+00  -9.3973735089230637e-04 7.5800762166727625e-04 0.0000000000000000e+00  -1.0615774207429843e-03 7.9802471120077247e-04 0.0000000000000000e+00  -1.1869614614337979e-03 8.3488707721133691e-04 0.0000000000000000e+00  -1.3132303253158342e-03 8.6801355624459991e-04 0.0000000000000000e+00  -1.4364026716246789e-03 8.9683000574526412e-04 0.0000000000000000e+00  -1.5505086432336908e-03 9.2078044712107915e-04 0.0000000000000000e+00  -1.6465867298767450e-03 9.3933923162795843e-04 0.0000000000000000e+00  -1.7111929907411645e-03 9.5202361336084429e-04 0.0000000000000000e+00  -1.7242208729386773e-03 9.5840564664225912e-04 0.0000000000000000e+00  -1.6557743955471329e-03 9.5812166752543449e-04 0.0000000000000000e+00  -1.4617877056760831e-03 9.5087681594832542e-04 0.0000