<?xml version="1.0"?>
<VTKFile type="UnstructuredGrid"  version="0.1"  >
<UnstructuredGrid>
<Piece  NumberOfPoints="1681" NumberOfCells="3200">
<Points>
<DataArray  type="Float64"  NumberOfComponents="3"  format="ascii">0 0 0  0.5 0 0  1 0 0  1.5 0 0  2 0 0  2.5 0 0  3 0 0  3.5 0 0  4 0 0  4.5 0 0  5 0 0  5.5 0 0  6 0 0  6.5 0 0  7 0 0  7.5 0 0  8 0 0  8.5 0 0  9 0 0  9.5 0 0  10 0 0  10.5 0 0  11 0 0  11.5 0 0  12 0 0  12.5 0 0  13 0 0  13.5 0 0  14 0 0  14.5 0 0  15 0 0  15.5 0 0  16 0 0  16.5 0 0  17 0 0  17.5 0 0  18 0 0  18.5 0 0  19 0 0  19.5 0 0  20 0 0  0 0.5 0  0.5 0.5 0  1 0.5 0  1.5 0.5 0  2 0.5 0  2.5 0.5 0  3 0.5 0  3.5 0.5 0  4 0.5 0  4.5 0.5 0  5 0.5 0  5.5 0.5 0  6 0.5 0  6.5 0.5 0  7 0.5 0  7.5 0.5 0  8 0.5 0  8.5 0.5 0  9 0.5 0  9.5 0.5 0  10 0.5 0  10.5 0.5 0  11 0.5 0  11.5 0.5 0  12 0.5 0  12.5 0.5 0  13 0.5 0  13.5 0.5 0  14 0.5 0  14.5 0.5 0  15 0.5 0  15.5 0.5 0  16 0.5 0  16.5 0.5 0  17 0.5 0  17.5 0.5 0  18 0.5 0  18.5 0.5 0  19 0.5 0  19.5 0.5 0  20 0.5 0  0 1 0  0.5 1 0  1 1 0  1.5 1 0  2 1 0  2.5 1 0  3 1 0  3.5 1 0  4 1 0  4.5 1 0  5 1 0  5.5 1 0  6 1 0  6.5 1 0  7 1 0  7.5 1 0  8 1 0  8.5 1 0  9 1 0  9.5 1 0  10 1 0  10.5 1 0  11 1 0  11.5 1 0  12 1 0  12.5 1 0  13 1 0  13.5 1 0  14 1 0  14.5 1 0  15 1 0  15.5 1 0  16 1 0  16.5 1 0  17 1 0  17.5 1 0  18 1 0  18.5 1 0  19 1 0  19.5 1 0  20 1 0  0 1.5 0  0.5 1.5 0  1 1.5 0  1.5 1.5 0  2 1.5 0  2.5 1.5 0  3 1.5 0  3.5 1.5 0  4 1.5 0  4.5 1.5 0  5 1.5 0  5.5 1.5 0  6 1.5 0  6.5 1.5 0  7 1.5 0  7.5 1.5 0  8 1.5 0  8.5 1.5 0  9 1.5 0  9.5 1.5 0  10 1.5 0  10.5 1.5 0  11 1.5 0  11.5 1.5 0  12 1.5 0  12.5 1.5 0  13 1.5 0  13.5 1.5 0  14 1.5 0  14.5 1.5 0  15 1.5 0  15.5 1.5 0  16 1.5 0  16.5 1.5 0  17 1.5 0  17.5 1.5 0  18 1.5 0  18.5 1.5 0  19 1.5 0  19.5 1.5 0  20 1.5 0  0 2 0  0.5 2 0  1 2 0  1.5 2 0  2 2 0  2.5 2 0  3 2 0  3.5 2 0  4 2 0  4.5 2 0  5 2 0  5.5 2 0  6 2 0  6.5 2 0  7 2 0  7.5 2 0  8 2 0  8.5 2 0  9 2 0  9.5 2 0  10 2 0  10.5 2 0  11 2 0  11.5 2 0  12 2 0  12.5 2 0  13 2 0  13.5 2 0  14 2 0  14.5 2 0  15 2 0  15.5 2 0  16 2 0  16.5 2 0  17 2 0  17.5 2 0  18 2 0  18.5 2 0  19 2 0  19.5 2 0  20 2 0  0 2.5 0  0.5 2.5 0  1 2.5 0  1.5 2.5 0  2 2.5 0  2.5 2.5 0  3 2.5 0  3.5 2.5 0  4 2.5 0  4.5 2.5 0  5 2.5 0  5.5 2.5 0  6 2.5 0  6.5 2.5 0  7 2.5 0  7.5 2.5 0  8 2.5 0  8.5 2.5 0  9 2.5 0  9.5 2.5 0  10 2.5 0  10.5 2.5 0  11 2.5 0  11.5 2.5 0  12 2.5 0  12.5 2.5 0  13 2.5 0  13.5 2.5 0  14 2.5 0  14.5 2.5 0  15 2.5 0  15.5 2.5 0  16 2.5 0  16.5 2.5 0  17 2.5 0  17.5 2.5 0  18 2.5 0  18.5 2.5 0  19 2.5 0  19.5 2.5 0  20 2.5 0  0 3 0  0.5 3 0  1 3 0  1.5 3 0  2 3 0  2.5 3 0  3 3 0  3.5 3 0  4 3 0  4.5 3 0  5 3 0  5.5 3 0  6 3 0  6.5 3 0  7 3 0  7.5 3 0  8 3 0  8.5 3 0  9 3 0  9.5 3 0  10 3 0  10.5 3 0  11 3 0  11.5 3 0  12 3 0  12.5 3 0  13 3 0  13.5 3 0  14 3 0  14.5 3 0  15 3 0  15.5 3 0  16 3 0  16.5 3 0  17 3 0  17.5 3 0  18 3 0  18.5 3 0  19 3 0  19.5 3 0  20 3 0  0 3.5 0  0.5 3.5 0  1 3.5 0  1.5 3.5 0  2 3.5 0  2.5 3.5 0  3 3.5 0  3.5 3.5 0  4 3.5 0  4.5 3.5 0  5 3.5 0  5.5 3.5 0  6 3.5 0  6.5 3.5 0  7 3.5 0  7.5 3.5 0  8 3.5 0  8.5 3.5 0  9 3.5 0  9.5 3.5 0  10 3.5 0  10.5 3.5 0  11 3.5 0  11.5 3.5 0  12 3.5 0  12.5 3.5 0  13 3.5 0  13.5 3.5 0  14 3.5 0  14.5 3.5 0  15 3.5 0  15.5 3.5 0  16 3.5 0  16.5 3.5 0  17 3.5 0  17.5 3.5 0  18 3.5 0  18.5 3.5 0  19 3.5 0  19.5 3.5 0  20 3.5 0  0 4 0  0.5 4 0  1 4 0  1.5 4 0  2 4 0  2.5 4 0  3 4 0  3.5 4 0  4 4 0  4.5 4 0  5 4 0  5.5 4 0  6 4 0  6.5 4 0  7 4 0  7.5 4 0  8 4 0  8.5 4 0  9 4 0  9.5 4 0  10 4 0  10.5 4 0  11 4 0  11.5 4 0  12 4 0  12.5 4 0  13 4 0  13.5 4 0  14 4 0  14.5 4 0  15 4 0  15.5 4 0  16 4 0  16.5 4 0  17 4 0  17.5 4 0  18 4 0  18.5 4 0  19 4 0  19.5 4 0  20 4 0  0 4.5 0  0.5 4.5 0  1 4.5 0  1.5 4.5 0  2 4.5 0  2.5 4.5 0  3 4.5 0  3.5 4.5 0  4 4.5 0  4.5 4.5 0  5 4.5 0  5.5 4.5 0  6 4.5 0  6.5 4.5 0  7 4.5 0  7.5 4.5 0  8 4.5 0  8.5 4.5 0  9 4.5 0  9.5 4.5 0  10 4.5 0  10.5 4.5 0  11 4.5 0  11.5 4.5 0  12 4.5 0  12.5 4.5 0  13 4.5 0  13.5 4.5 0  14 4.5 0  14.5 4.5 0  15 4.5 0  15.5 4.5 0  16 4.5 0  16.5 4.5 0  17 4.5 0  17.5 4.5 0  18 4.5 0  18.5 4.5 0  19 4.5 0  19.5 4.5 0  20 4.5 0  0 5 0  0.5 5 0  1 5 0  1.5 5 0  2 5 0  2.5 5 0  3 5 0  3.5 5 0  4 5 0  4.5 5 0  5 5 0  5.5 5 0  6 5 0  6.5 5 0  7 5 0  7.5 5 0  8 5 0  8.5 5 0  9 5 0  9.5 5 0  10 5 0  10.5 5 0  11 5 0  11.5 5 0  12 5 0  12.5 5 0  13 5 0  13.5 5 0  14 5 0  14.5 5 0  15 5 0  15.5 5 0  16 5 0  16.5 5 0  17 5 0  17.5 5 0  18 5 0  18.5 5 0  19 5 0  19.5 5 0  20 5 0  0 5.5 0  0.5 5.5 0  1 5.5 0  1.5 5.5 0  2 5.5 0  2.5 5.5 0  3 5.5 0  3.5 5.5 0  4 5.5 0  4.5 5.5 0  5 5.5 0  5.5 5.5 0  6 5.5 0  6.5 5.5 0  7 5.5 0  7.5 5.5 0  8 5.5 0  8.5 5.5 0  9 5.5 0  9.5 5.5 0  10 5.5 0  10.5 5.5 0  11 5.5 0  11.5 5.5 0  12 5.5 0  12.5 5.5 0  13 5.5 0  13.5 5.5 0  14 5.5 0  14.5 5.5 0  15 5.5 0  15.5 5.5 0  16 5.5 0  16.5 5.5 0  17 5.5 0  17.5 5.5 0  18 5.5 0  18.5 5.5 0  19 5.5 0  19.5 5.5 0  20 5.5 0  0 6 0  0.5 6 0  1 6 0  1.5 6 0  2 6 0  2.5 6 0  3 6 0  3.5 6 0  4 6 0  4.5 6 0  5 6 0  5.5 6 0  6 6 0  6.5 6 0  7 6 0  7.5 6 0  8 6 0  8.5 6 0  9 6 0  9.5 6 0  10 6 0  10.5 6 0  11 6 0  11.5 6 0  12 6 0  12.5 6 0  13 6 0  13.5 6 0  14 6 0  14.5 6 0  15 6 0  15.5 6 0  16 6 0  16.5 6 0  17 6 0  17.5 6 0  18 6 0  18.5 6 0  19 6 0  19.5 6 0  20 6 0  0 6.5 0  0.5 6.5 0  1 6.5 0  1.5 6.5 0  2 6.5 0  2.5 6.5 0  3 6.5 0  3.5 6.5 0  4 6.5 0  4.5 6.5 0  5 6.5 0  5.5 6.5 0  6 6.5 0  6.5 6.5 0  7 6.5 0  7.5 6.5 0  8 6.5 0  8.5 6.5 0  9 6.5 0  9.5 6.5 0  10 6.5 0  10.5 6.5 0  11 6.5 0  11.5 6.5 0  12 6.5 0  12.5 6.5 0  13 6.5 0  13.5 6.5 0  14 6.5 0  14.5 6.5 0  15 6.5 0  15.5 6.5 0  16 6.5 0  16.5 6.5 0  17 6.5 0  17.5 6.5 0  18 6.5 0  18.5 6.5 0  19 6.5 0  19.5 6.5 0  20 6.5 0  0 7 0  0.5 7 0  1 7 0  1.5 7 0  2 7 0  2.5 7 0  3 7 0  3.5 7 0  4 7 0  4.5 7 0  5 7 0  5.5 7 0  6 7 0  6.5 7 0  7 7 0  7.5 7 0  8 7 0  8.5 7 0  9 7 0  9.5 7 0  10 7 0  10.5 7 0  11 7 0  11.5 7 0  12 7 0  12.5 7 0  13 7 0  13.5 7 0  14 7 0  14.5 7 0  15 7 0  15.5 7 0  16 7 0  16.5 7 0  17 7 0  17.5 7 0  18 7 0  18.5 7 0  19 7 0  19.5 7 0  20 7 0  0 7.5 0  0.5 7.5 0  1 7.5 0  1.5 7.5 0  2 7.5 0  2.5 7.5 0  3 7.5 0  3.5 7.5 0  4 7.5 0  4.5 7.5 0  5 7.5 0  5.5 7.5 0  6 7.5 0  6.5 7.5 0  7 7.5 0  7.5 7.5 0  8 7.5 0  8.5 7.5 0  9 7.5 0  9.5 7.5 0  10 7.5 0  10.5 7.5 0  11 7.5 0  11.5 7.5 0  12 7.5 0  12.5 7.5 0  13 7.5 0  13.5 7.5 0  14 7.5 0  14.5 7.5 0  15 7.5 0  15.5 7.5 0  16 7.5 0  16.5 7.5 0  17 7.5 0  17.5 7.5 0  18 7.5 0  18.5 7.5 0  19 7.5 0  19.5 7.5 0  20 7.5 0  0 8 0  0.5 8 0  1 8 0  1.5 8 0  2 8 0  2.5 8 0  3 8 0  3.5 8 0  4 8 0  4.5 8 0  5 8 0  5.5 8 0  6 8 0  6.5 8 0  7 8 0  7.5 8 0  8 8 0  8.5 8 0  9 8 0  9.5 8 0  10 8 0  10.5 8 0  11 8 0  11.5 8 0  12 8 0  12.5 8 0  13 8 0  13.5 8 0  14 8 0  14.5 8 0  15 8 0  15.5 8 0  16 8 0  16.5 8 0  17 8 0  17.5 8 0  18 8 0  18.5 8 0  19 8 0  19.5 8 0  20 8 0  0 8.5 0  0.5 8.5 0  1 8.5 0  1.5 8.5 0  2 8.5 0  2.5 8.5 0  3 8.5 0  3.5 8.5 0  4 8.5 0  4.5 8.5 0  5 8.5 0  5.5 8.5 0  6 8.5 0  6.5 8.5 0  7 8.5 0  7.5 8.5 0  8 8.5 0  8.5 8.5 0  9 8.5 0  9.5 8.5 0  10 8.5 0  10.5 8.5 0  11 8.5 0  11.5 8.5 0  12 8.5 0  12.5 8.5 0  13 8.5 0  13.5 8.5 0  14 8.5 0  14.5 8.5 0  15 8.5 0  15.5 8.5 0  16 8.5 0  16.5 8.5 0  17 8.5 0  17.5 8.5 0  18 8.5 0  18.5 8.5 0  19 8.5 0  19.5 8.5 0  20 8.5 0  0 9 0  0.5 9 0  1 9 0  1.5 9 0  2 9 0  2.5 9 0  3 9 0  3.5 9 0  4 9 0  4.5 9 0  5 9 0  5.5 9 0  6 9 0  6.5 9 0  7 9 0  7.5 9 0  8 9 0  8.5 9 0  9 9 0  9.5 9 0  10 9 0  10.5 9 0  11 9 0  11.5 9 0  12 9 0  12.5 9 0  13 9 0  13.5 9 0  14 9 0  14.5 9 0  15 9 0  15.5 9 0  16 9 0  16.5 9 0  17 9 0  17.5 9 0  18 9 0  18.5 9 0  19 9 0  19.5 9 0  20 9 0  0 9.5 0  0.5 9.5 0  1 9.5 0  1.5 9.5 0  2 9.5 0  2.5 9.5 0  3 9.5 0  3.5 9.5 0  4 9.5 0  4.5 9.5 0  5 9.5 0  5.5 9.5 0  6 9.5 0  6.5 9.5 0  7 9.5 0  7.5 9.5 0  8 9.5 0  8.5 9.5 0  9 9.5 0  9.5 9.5 0  10 9.5 0  10.5 9.5 0  11 9.5 0  11.5 9.5 0  12 9.5 0  12.5 9.5 0  13 9.5 0  13.5 9.5 0  14 9.5 0  14.5 9.5 0  15 9.5 0  15.5 9.5 0  16 9.5 0  16.5 9.5 0  17 9.5 0  17.5 9.5 0  18 9.5 0  18.5 9.5 0  19 9.5 0  19.5 9.5 0  20 9.5 0  0 10 0  0.5 10 0  1 10 0  1.5 10 0  2 10 0  2.5 10 0  3 10 0  3.5 10 0  4 10 0  4.5 10 0  5 10 0  5.5 10 0  6 10 0  6.5 10 0  7 10 0  7.5 10 0  8 10 0  8.5 10 0  9 10 0  9.5 10 0  10 10 0  10.5 10 0  11 10 0  11.5 10 0  12 10 0  12.5 10 0  13 10 0  13.5 10 0  14 10 0  14.5 10 0  15 10 0  15.5 10 0  16 10 0  16.5 10 0  17 10 0  17.5 10 0  18 10 0  18.5 10 0  19 10 0  19.5 10 0  20 10 0  0 10.5 0  0.5 10.5 0  1 10.5 0  1.5 10.5 0  2 10.5 0  2.5 10.5 0  3 10.5 0  3.5 10.5 0  4 10.5 0  4.5 10.5 0  5 10.5 0  5.5 10.5 0  6 10.5 0  6.5 10.5 0  7 10.5 0  7.5 10.5 0  8 10.5 0  8.5 10.5 0  9 10.5 0  9.5 10.5 0  10 10.5 0  10.5 10.5 0  11 10.5 0  11.5 10.5 0  12 10.5 0  12.5 10.5 0  13 10.5 0  13.5 10.5 0  14 10.5 0  14.5 10.5 0  15 10.5 0  15.5 10.5 0  16 10.5 0  16.5 10.5 0  17 10.5 0  17.5 10.5 0  18 10.5 0  18.5 10.5 0  19 10.5 0  19.5 10.5 0  20 10.5 0  0 11 0  0.5 11 0  1 11 0  1.5 11 0  2 11 0  2.5 11 0  3 11 0  3.5 11 0  4 11 0  4.5 11 0  5 11 0  5.5 11 0  6 11 0  6.5 11 0  7 11 0  7.5 11 0  8 11 0  8.5 11 0  9 11 0  9.5 11 0  10 11 0  10.5 11 0  11 11 0  11.5 11 0  12 11 0  12.5 11 0  13 11 0  13.5 11 0  14 11 0  14.5 11 0  15 11 0  15.5 11 0  16 11 0  16.5 11 0  17 11 0  17.5 11 0  18 11 0  18.5 11 0  19 11 0  19.5 11 0  20 11 0  0 11.5 0  0.5 11.5 0  1 11.5 0  1.5 11.5 0  2 11.5 0  2.5 11.5 0  3 11.5 0  3.5 11.5 0  4 11.5 0  4.5 11.5 0  5 11.5 0  5.5 11.5 0  6 11.5 0  6.5 11.5 0  7 11.5 0  7.5 11.5 0  8 11.5 0  8.5 11.5 0  9 11.5 0  9.5 11.5 0  10 11.5 0  10.5 11.5 0  11 11.5 0  11.5 11.5 0  12 11.5 0  12.5 11.5 0  13 11.5 0  13.5 11.5 0  14 11.5 0  14.5 11.5 0  15 11.5 0  15.5 11.5 0  16 11.5 0  16.5 11.5 0  17 11.5 0  17.5 11.5 0  18 11.5 0  18.5 11.5 0  19 11.5 0  19.5 11.5 0  20 11.5 0  0 12 0  0.5 12 0  1 12 0  1.5 12 0  2 12 0  2.5 12 0  3 12 0  3.5 12 0  4 12 0  4.5 12 0  5 12 0  5.5 12 0  6 12 0  6.5 12 0  7 12 0  7.5 12 0  8 12 0  8.5 12 0  9 12 0  9.5 12 0  10 12 0  10.5 12 0  11 12 0  11.5 12 0  12 12 0  12.5 12 0  13 12 0  13.5 12 0  14 12 0  14.5 12 0  
[...]
<PointData  Vectors="f_2975-0"> 
<DataArray  type="Float64"  Name="f_2975-0"  NumberOfComponents="3" format="ascii">0.0000000000000000e+00 0.0000000000000000e+00 0.0000000000000000e+00  -3.1997956448878745e-07 0.0000000000000000e+00 0.0000000000000000e+00  -5.7984266794498890e-06 0.0000000000000000e+00 0.0000000000000000e+00  -2.4190876797597967e-05 0.0000000000000000e+00 0.0000000000000000e+00  -6.1915676662686826e-05 0.0000000000000000e+00 0.0000000000000000e+00  -1.2515010093814281e-04 0.0000000000000000e+00 0.0000000000000000e+00  -2.1985112663062609e-04 0.0000000000000000e+00 0.0000000000000000e+00  -3.5168551229644633e-04 0.0000000000000000e+00 0.0000000000000000e+00  -5.2594427790348839e-04 0.0000000000000000e+00 0.0000000000000000e+00  -7.4744261699979388e-04 0.0000000000000000e+00 0.0000000000000000e+00  -1.0204010842914343e-03 0.0000000000000000e+00 0.0000000000000000e+00  -1.3483034447172111e-03 0.0000000000000000e+00 0.0000000000000000e+00  -1.7337260612450443e-03 0.0000000000000000e+00 0.0000000000000000e+00  -2.1781330026771528e-03 0.0000000000000000e+00 0.0000000000000000e+00  -2.6816302547709933e-03 0.0000000000000000e+00 0.0000000000000000e+00  -3.2426715603534177e-03 0.0000000000000000e+00 0.0000000000000000e+00  -3.8577075190650467e-03 0.0000000000000000e+00 0.0000000000000000e+00  -4.5207686631735106e-03 0.0000000000000000e+00 0.0000000000000000e+00  -5.2229723061253171e-03 0.0000000000000000e+00 0.0000000000000000e+00  -5.9519420395859144e-03 0.0000000000000000e+00 0.0000000000000000e+00  -6.6911278225439521e-03 0.0000000000000000e+00 0.0000000000000000e+00  -7.4190136253050563e-03 0.0000000000000000e+00 0.0000000000000000e+00  -8.1081984867802728e-03 0.0000000000000000e+00 0.0000000000000000e+00  -8.7243354866724989e-03 0.0000000000000000e+00 0.0000000000000000e+00  -9.2249113228591341e-03 0.0000000000000000e+00 0.0000000000000000e+00  -9.5578466222639869e-03 0.0000000000000000e+00 0.0000000000000000e+00  -9.6598933818107888e-03 0.0000000000000000e+00 0.0000000000000000e+00  -9.4548004573629003e-03 0.0000000000000000e+00 0.0000000000000000e+00  -8.8512100059954246e-03 0.0000000000000000e+00 0.0000000000000000e+00  -7.7402361707599315e-03 0.0000000000000000e+00 0.0000000000000000e+00  -5.9926605994192993e-03 0.0000000000000000e+00 0.0000000000000000e+00  -3.4556555246330260e-03 0.0000000000000000e+00 0.0000000000000000e+00  5.1088945146079357e-05 0.0000000000000000e+00 0.0000000000000000e+00  4.7400056025907354e-03 0.0000000000000000e+00 0.0000000000000000e+00  1.0861302451852734e-02 0.0000000000000000e+00 0.0000000000000000e+00  1.8709976140908479e-02 0.0000000000000000e+00 0.0000000000000000e+00  2.8634701530591975e-02 0.0000000000000000e+00 0.0000000000000000e+00  4.1049395653550473e-02 0.0000000000000000e+00 0.0000000000000000e+00  5.6448858364771821e-02 0.0000000000000000e+00 0.0000000000000000e+00  7.5431827984565797e-02 0.0000000000000000e+00 0.0000000000000000e+00  9.8742294684294657e-02 0.0000000000000000e+00 0.0000000000000000e+00  0.0000000000000000e+00 -3.1997956620716610e-07 0.0000000000000000e+00  4.2239452123324482e-06 4.2239452131394080e-06 0.0000000000000000e+00  1.7260939958047277e-06 1.4937230132183964e-05 0.0000000000000000e+00  -1.3498993219992083e-05 3.1898203493164056e-05 0.0000000000000000e+00  -4.7935938740109817e-05 5.5311266133237029e-05 0.0000000000000000e+00  -1.0783727026366730e-04 8.5194086251351260e-05 0.0000000000000000e+00  -1.9919157663423571e-04 1.2145875232049903e-04 0.0000000000000000e+00  -3.2767997851001590e-04 1.6395867404279873e-04 0.0000000000000000e+00  -4.9860237482714015e-04 2.1250451517532620e-04 0.0000000000000000e+00  -7.1678161891985167e-04 2.6686793498056054e-04 0.0000000000000000e+00  -9.8644633721058322e-04 3.2678109521616481e-04 0.0000000000000000e+00  -1.3110894868460714e-03 3.9193467820736113e-04 0.0000000000000000e+00  -1.6932980927787831e-03 4.6197535188651347e-04 0.0000000000000000e+00  -2.1345485376407657e-03 5.3650304387575494e-04 0.0000000000000000e+00  -2.6349608572892530e-03 6.1506821115363838e-04 0.0000000000000000e+00  -3.1930045924984793e-03 6.9716924106331371e-04 0.0000000000000000e+00  -3.8051478346759963e-03 7.8225010881375766e-04 0.0000000000000000e+00  -4.4654401811214696e-03 8.6969842035120341e-04 0.0000000000000000e+00  -5.1650193914322502e-03 9.5884397693879703e-04 0.0000000000000000e+00  -5.8915306139434263e-03 1.0489580063241270e-03 0.0000000000000000e+00  -6.6284461177551785e-03 1.1392532122404106e-03 0.0000000000000000e+00  -7.3542724847417470e-03 1.2288847981411475e-03 0.0000000000000000e+00  -8.0416311117464372e-03 1.3169526210100987e-03 0.0000000000000000e+00  -8.6561965166123932e-03 1.4025046255758170e-03 0.0000000000000000e+00  -9.1554751309306220e-03 1.4845416962757990e-03 0.0000000000000000e+00  -9.4874047008698548e-03 1.5620240426197070e-03 0.0000000000000000e+00  -9.5887506851642275e-03 1.6338792005133873e-03 0.0000000000000000e+00  -9.3832705575963241e-03 1.6990116849003980e-03 0.0000000000000000e+00  -8.7796089015365186e-03 1.7563142657955099e-03 0.0000000000000000e+00  -7.6688745526661602e-03 1.8046807577535196e-03 0.0000000000000000e+00  -5.9218343243500979e-03 1.8430201115998219e-03 0.0000000000000000e+00  -3.3856339586183131e-03 1.8702714776912140e-03 0.0000000000000000e+00  1.2007712968221143e-04 1.8854197699249618e-03 0.0000000000000000e+00  4.8077895199604963e-03 1.8875110808622407e-03 0.0000000000000000e+00  1.0927788529693677e-02 1.8756670231138113e-03 0.0000000000000000e+00  1.8775166022249969e-02 1.8490966401316471e-03 0.0000000000000000e+00  2.8698689764572145e-02 1.8071044211591231e-03 0.0000000000000000e+00  4.1112266476881210e-02 1.7490971306300244e-03 0.0000000000000000e+00  5.6510090444212860e-02 1.6746193397220036e-03 0.0000000000000000e+00  7.5486951377252628e-02 1.5835607425757378e-03 0.0000000000000000e+00  9.8763780148498778e-02 1.4769147830264594e-03 0.0000000000000000e+00  0.0000000000000000e+00 -5.7984266852121525e-06 0.0000000000000000e+00  1.4937230133765015e-05 1.7260939994792017e-06 0.0000000000000000e+00  2.2603738983545021e-05 2.2603738983559672e-05 0.0000000000000000e+00  1.7384933306145805e-05 5.6573489458847424e-05 0.0000000000000000e+00  -7.0506633090907798e-06 1.0357793599692268e-04 0.0000000000000000e+00  -5.6927846934807170e-05 1.6350243808548328e-04 0.0000000000000000e+00  -1.3824543253178602e-04 2.3615028623597166e-04 0.0000000000000000e+00  -2.5670173569067501e-04 3.2123944213518314e-04 0.0000000000000000e+00  -4.1761506914285245e-04 4.1840542274029590e-04 0.0000000000000000e+00  -6.2582816881112213e-04 5.2720298842778336e-04 0.0000000000000000e+00  -8.8559214895421207e-04 6.4710517491085189e-04 0.0000000000000000e+00  -1.2004260362688450e-03 7.7750023893756047e-04 0.0000000000000000e+00  -1.5729471956723703e-03 9.1768732290346160e-04 0.0000000000000000e+00  -2.0046670608713031e-03 1.0668714602437787e-03 0.0000000000000000e+00  -2.4957456670426786e-03 1.2241583676067180e-03 0.0000000000000000e+00  -3.0446975601513071e-03 1.3885493683353299e-03 0.0000000000000000e+00  -3.6480407272181927e-03 1.5589367469285764e-03 0.0000000000000000e+00  -4.2998792585305394e-03 1.7340998226850546e-03 0.0000000000000000e+00  -4.9914095228494517e-03 1.9127020347539905e-03 0.0000000000000000e+00  -5.7103387113116855e-03 2.0932893420156761e-03 0.0000000000000000e+00  -6.4402036721894649e-03 2.2742902520475417e-03 0.0000000000000000e+00  -7.1595769793495120e-03 2.4540178007494383e-03 0.0000000000000000e+00  -7.8411460764887374e-03 2.6306738043542113e-03 0.0000000000000000e+00  -8.4506499878291372e-03 2.8023556948217052e-03 0.0000000000000000e+00  -8.9456562817725738e-03 2.9670662257239430e-03 0.0000000000000000e+00  -9.2741584208774590e-03 3.1227262942623529e-03 0.0000000000000000e+00  -9.3729699085985368e-03 3.2671910634145332e-03 0.0000000000000000e+00  -9.1658861723785592e-03 3.3982694815930586e-03 0.0000000000000000e+00  -8.5615771152051465e-03 3.5137471832508965e-03 0.0000000000000000e+00  -7.4511616515761034e-03 3.6114126089931585e-03 0.0000000000000000e+00  -5.7053988484325859e-03 3.6890860066656774e-03 0.0000000000000000e+00  -3.1714064589086583e-03 3.7446507643528124e-03 0.0000000000000000e+00  3.3121628518586218e-04 3.7760862784777518e-03 0.0000000000000000e+00  5.0150331268899763e-03 3.7815012674867307e-03 0.0000000000000000e+00  1.1130423425705622e-02 3.7591660993301517e-03 0.0000000000000000e+00  1.8972584742284235e-02 3.7075423493708602e-03 0.0000000000000000e+00  2.8890375731276743e-02 3.6253074134219880e-03 0.0000000000000000e+00  4.1297712443408574e-02 3.5113694617132634e-03 0.0000000000000000e+00  5.6688566254527839e-02 3.3648455172450866e-03 0.0000000000000000e+00  7.5657085213083175e-02 3.1848318351399389e-03 0.0000000000000000e+00  9.8925039016830404e-02 2.9690378946651656e-03 0.0000000000000000e+00  0.0000000000000000e+00 -2.4190876799994250e-05 0.0000000000000000e+00  3.1898203497363571e-05 -1.3498993217713981e-05 0.0000000000000000e+00  5.6573489463677958e-05 1.7384933304657006e-05 0.0000000000000000e+00  6.8176396511538426e-05 6.8176396505177615e-05 0.0000000000000000e+00  6.0502229787181258e-05 1.3867057709532977e-04 0.0000000000000000e+00  2.7365647474702335e-05 2.2861994736553213e-04 0.0000000000000000e+00  -3.7224699042251596e-05 3.3768591678616451e-04 0.0000000000000000e+00  -1.3897600087553399e-04 4.6542781991990826e-04 0.0000000000000000e+00  -2.8322559533604404e-04 6.1129711213175723e-04 0.0000000000000000e+00  -4.7484299797478165e-04 7.7463187896028858e-04 0.0000000000000000e+00  -7.1811328934542635e-04 9.5465088274116784e-04 0.0000000000000000e+00  -1.0165968300943427e-03 1.1504468928067596e-03 0.0000000000000000e+00  -1.3729600903466671e-03 1.3609793295198600e-03 0.0000000000000000e+00  -1.7887717614833700e-03 1.5850664453362306e-03 0.0000000000000000e+00  -2.2642575318747972e-03 1.8213773657256526e-03 0.0000000000000000e+00  -2.7980060409078088e-03 2.0684243588549151e-03 0.0000000000000000e+00  -3.3866176170347633e-03 2.3245557279323753e-03 0.0000000000000000e+00  -4.0242864802091790e-03 2.5879497418381707e-03 0.0000000000000000e+00  -4.7023061616099215e-03 2.8566100416055618e-03 0.0000000000000000e+00  -5.4084869702701261e-03 3.1283629834008473e-03 0.0000000000000000e+00  -6.1264734055289441e-03 3.4008573979445139e-03 0.0000000000000000e+00  -6.8349484397243927e-03 3.6715672595140380e-03 0.0000000000000000e+00  -7.5067105018875096e-03 3.9377977593456227e-03 0.0000000000000000e+00  -8.1076076514085983e-03 4.1966952645463244e-03 0.0000000000000000e+00  -8.5953116392154891e-03 4.4452616093668147e-03 0.0000000000000000e+00  -8.9179120158680552e-03 4.6803731059247757e-03 0.0000000000000000e+00  -9.0123067417795140e-03 4.8988045707654823e-03 0.0000000000000000e+00  -8.8023603049852944e-03 5.0972585359779950e-03 0.0000000000000000e+00  -8.1967923689518600e-03 5.2723996434141628e-03 0.0000000000000000e+00  -7.0867483861994001e-03 5.4208940009107210e-03 0.0000000000000000e+00  -5.3429869577481404e-03 5.5394530031495602e-03 0.0000000000000000e+00  -2.8125949499507009e-03 5.6248807752263047e-03 0.0000000000000000e+00  6.8489242020893133e-04 5.6741239617167189e-03 0.0000000000000000e+00  5.3621374530669844e-03 5.6843219993427544e-03 0.0000000000000000e+00  1.1469651702405621e-02 5.6528551073232458e-03 0.0000000000000000e+00  1.9302793550938745e-02 5.5773854360874802e-03 0.0000000000000000e+00  2.9210598939540446e-02 5.4558821276252424e-03 0.0000000000000000e+00  4.1607152505306125e-02 5.2866066927464653e-03 0.0000000000000000e+00  5.6986533351074106e-02 5.0679916576080401e-03 0.0000000000000000e+00  7.5942831467639776e-02 4.7982342302720889e-03 0.0000000000000000e+00  9.9197354315013517e-02 4.4742479843749875e-03 0.0000000000000000e+00  0.0000000000000000e+00 -6.1915676669277081e-05 0.0000000000000000e+00  5.5311266129153904e-05 -4.7935938743065169e-05 0.0000000000000000e+00  1.0357793599656515e-04 -7.0506633072670094e-06 0.0000000000000000e+00  1.3867057709559296e-04 6.0502229784465447e-05 0.0000000000000000e+00  1.5442705765925864e-04 1.5442705765772211e-04 0.0000000000000000e+00  1.4469175316967237e-04 2.7436363146410661e-04 0.0000000000000000e+00  1.0347875552812684e-04 4.1984261864684650e-04 0.0000000000000000e+00  2.5070789699325835e-05 5.9026892028216050e-04 0.0000000000000000e+00  -9.5891461733096630e-05 7.8491169136592719e-04 0.0000000000000000e+00  -2.6431042775827864e-04 1.0028951952293968e-03 0.0000000000000000e+00  -4.8451497107977927e-04 1.2431891162863831e-03 0.0000000000000000e+00  -7.6012038506546159e-04 1.5045981782938816e-03 0.0000000000000000e+00  -1.0938596189023909e-03 1.7857512130134373e-03 0.0000000000000000e+00  -1.4873797537612865e-03 2.0850899254700930e-03 0.0000000000000000e+00  -1.9409970054353890e-03 2.4008576756338260e-03 0.0000000000000000e+00  -2.4534026856082520e-03 2.7310886658949429e-03 0.0000000000000000e+00  -3.0213116611003564e-03 3.0735979870313212e-03 0.0000000000000000e+00  -3.6390439347028665e-03 3.4259730326253947e-03 0.0000000000000000e+00  -4.2980290507024744e-03 3.7855668426372822e-03 0.0000000000000000e+00  -4.9862221107158456e-03 4.1494939816615756e-03 0.0000000000000000e+00  -5.6874192610641616e-03 4.5146295929889861e-03 0.0000000000000000e+00  -6.3804595466272103e-03 4.8776122942518494e-03 0.0000000000000000e+00  -7.0382989436009093e-03 5.2348515882161594e-03 0.0000000000000000e+00  -7.6269410561074858e-03 5.5825404489112948e-03 0.0000000000000000e+00  -8.1042071885946490e-03 5.9166737017668719e-03 0.0000000000000000e+00  -8.4183259905620238e-03 6.2330727402446920e-03 0.0000000000000000e+00  -8.5063191931141532e-03 6.5274170027453463e-03 0.0000000000000000e+00  -8.2921545389795324e-03 6.7952824639453549e-03 0.0000000000000000e+00  -7.6846290613434955e-03 7.0321871644199157e-03 0.0000000000000000e+00  -6.5749343222919745e-03 7.2336434999470825e-03 0.0000000000000000e+00  -4.8338386160251337e-03 7.3952166017678114e-03 0.0000000000000000e+00  -2.3083974401893882e-03 7.5125876351867385e-03 0.0000000000000000e+00  1.1819301606155401e-03 7.5816201767136184e-03 0.0000000000000000e+00  5.8499297285533958e-03 7.5984268769987151e-03 0.0000000000000000e+00  1.1946282989199072e-02 7.5594320717356674e-03 0.0000000000000000e+00  1.9766561129436120e-02 7.4614230805815441e-03 0.0000000000000000e+00  2.9660043128915459e-02 7.3015768161578728e-03 0.0000000000000000e+00  4.2041056506925759e-02 7.0774357117333068e-03 0.0000000000000000e+00  5.7403852065893789e-02 6.7867861401437945e-03 0.0000000000000000e+00  7.6342479034130689e-02 6.4273834340133453e-03 0.0000000000000000e+00  9.9577804159279956e-02 5.9965845934073971e-03 0.0000000000000000e+00  0.0000000000000000e+00 -1.2515010093926588e-04 0.0000000000000000e+00  8.5194086251069612e-05 -1.0783727026467139e-04 0.0000000000000000e+00  1.6350243808767331e-04 -5.6927846938562684e-05 0.0000000000000000e+00  2.2861994737497291e-04 2.7365647469669696e-05 0.0000000000000000e+00  2.7436363147108187e-04 1.4469175316923725e-04 0.0000000000000000e+00  2.9459400985501911e-04 2.9459400985227738e-04 0.0000000000000000e+00  2.8332711890936705e-04 4.7648409986482735e-04 0.0000000000000000e+00  2.3483272491205002e-04 6.8962292743309016e-04 0.0000000000000000e+00  1.4372509351832940e-04 9.3310731899308127e-04 0.0000000000000000e+00  5.0621618693758836e-06 1.2058577027682263e-03 0.0000000000000000e+00  -1.8553825655004747e-04 1.5066052324901413e-03 0.0000000000000000e+00  -4.3175917662368100e-04 1.8338780712338534e-03 0.0000000000000000e+00  -7.3641636615644690e-04 2.1859869806139633e-03 0.0000000000000000e+00  -1.1012553872796463e-03 2.5610105273824167e-03 0.0000000000000000e+00  -1.5267069450207835e-03 2.9567803092077579e-03 0.0000000000000000e+00  -2.0115929022487137e-03 3.3708666738170548e-03 0.0000000000000000e+00  -2.5527744308652422e-03 3.8005654772105438e-03 0.0000000000000000e+00  -3.1447328557956565e-03 4.2428864974671078e-03 0.0000000000000000e+00  -3.7790728306568927e-03 4.6945441900935496e-03 0.0000000000000000e+00  -4.4439365709076587e-03 5.1519515342404914e-03 0.0000000000000000e+00  -5.1233169530172738e-03 5.6112177723944140e-03 0.0000000000000000e+00  -5.7962563319722644e-03 6.0681508855505413e-03 0.0000000000000000e+00  -6.4359168609572489e-03 6.5182656640997410e-03 0.0000000000000000e+00  -7.0085067883557430e-03 6.9567982260262482e-03 0.0000000000000000e+00  -7.4720454583947771e-03 7.3787277901373660e-03 0.0000000000000000e+00  -7.7749472566263945e-03 7.7788064237260266e-03 0.0000000000000000e+00  -7.8544011009938006e-03 8.1515973418905489e-03 0.0000000000000000e+00  -7.6345167053464115e-03 8.4915221278666318e-03 0.0000000000000000e+00  -7.0242009467276776e-03 8.7929169565877183e-03 0.0000000000000000e+00  -5.9147161821620714e-03 9.0500975219145238e-03 0.0000000000000000e+00  -4.1768558238319368e-03 9.2574318683340800e-03 0.0000000000000000e+00  -1.6576488660605285e-03 9.4094196768401087e-03 0.0000000000000000e+00  1.8235285147697395e-03 9.5007756915661181e-03 0.0000000000000000e+00  6.4796038922219469e-03 9.5265137773326517e-03 0.0000000000000000e+00  1.2561459821728863e-02 9.4820263270057291e-03 0.0000000000000000e+00  2.0364921343811408e-02 9.3631509667370712e-03 0.0000000000000000e+00  3.0239558809742387e-02 9.1662122791986832e-03 0.0000000000000000e+00  4.2599996107389217e-02 8.8880213074542351e-03 0.0000000000000000e+00  5.7940730380763521e-02 8.5258163841880150e-03 0.0000000000000000e+00  7.6855958046784023e-02 8.0771587085078020e-03 0.0000000000000000e+00  1.0006671636142656e-01 7.5399079421349432e-03 0.0000000000000000e+00  0.0000000000000000e+00 -2.1985112662854927e-04 0.0000000000000000e+00  1.2145875232176054e-04 -1.9919157663885695e-04 0.0000000000000000e+00  2.3615028623964892e-04 -1.3824543253308783e-04 0.0000000000000000e+00  3.3768591678507760e-04 -3.7224699046939334e-05 0.0000000000000000e+00  4.1984261864258770e-04 1.0347875552576966e-04 0.0000000000000000e+00  4.7648409986344515e-04 2.8332711890591690e-04 0.0000000000000000e+00  5.0162507040967192e-04 5.0162507041119685e-04 0.0000000000000000e+00  4.8952031441208785e-04 7.5750154676957585e-04 0.0000000000000000e+00  4.3475424397178205e-04 1.0498939198417140e-03 0.0000000000000000e+00  3.3233940169835602e-04 1.3775326495983453e-03 0.0000000000000000e+00  1.7783171557791925e-04 1.7389252206117781e-03 0.0000000000000000e+00  -3.2531282470251979e-05 2.1323390602889895e-03 0.0000000000000000e+00  -3.0166340188384269e-04 2.5557835727699298e-03 0.0000000000000000e+00  -6.3142767003746903e-04 3.0069916299731150e-03 0.0000000000000000e+00  -1.0223922341617436e-03 3.4834009833067249e-03 0.0000000000000000e+00  -1.4735365652521269e-03 3.9821361538473245e-03 0.0000000000000000e+00  -1.9818993552525618e-03 4.4999914468975624e-03 0.0000000000000000e+00  -2.5421585858368093e-03 5.0334158233027344e-03 0.0000000000000000e+00  -3.1461333302595586e-03 5.5785004459597155e-03 0.0000000000000000e+00  -3.7821959394831752e-03 6.1309698009830924e-03 0.0000000000000000e+00  -4.4345823527708319e-03 6.6861773644564994e-03 0.0000000000000000e+00  -5.0825873274934815e-03 7.2391068420435889e-03 0.0000000000000000e+00  -5.6996303303345252e-03 7.7843800413109933e-03 0.0000000000000000e+00  -6.2521765457709344e-03 8.3162724380601051e-03 0.0000000000000000e+00  -6.6984957382452423e-03 8.8287374575740356e-03 0.0000000000000000e+00  -6.9872392566513548e-03 9.3154403986633969e-03 0.0000000000000000e+00  -7.0558118760603618e-03 9.7698027702016674e-03 0.0000000000000000e+00  -6.8285098534711054e-03 1.0185057572488438e-02 0.0000000000000000e+00  -6.2143887456063973e-03 1.0554315722378660e-02 0.0000000000000000e+00  -5.1048131285658027e-03 1.0870643373515371e-02 0.0000000000000000e+00  -3.3706239124778339e-03 1.1127149295681057e-02 0.0000000000000000e+00  -8.5883543763077999e-04 1.1317080718903300e-02 0.0000000000000000e+00  2.6112588878704130e-03 1.1433925074189836e-02 0.0000000000000000e+00  7.2527411484003702e-03 1.1471513812740062e-02 0.0000000000000000e+00  1.3316720198229527e-02 1.1424122894387297e-02 0.0000000000000000e+00  2.1099313791381476e